<?xml version="1.0" encoding="UTF-8"?>

<!-- generated on 2026-01-18T10:32:27.322170+01:00 by Eclipse SUMO GUI v1_25_0+0150-04664dcec11
<sumoConfiguration xmlns:xsi="http://www.w3.org/2001/XMLSchema-instance" xsi:noNamespaceSchemaLocation="http://sumo.dlr.de/xsd/sumoConfiguration.xsd">

    <input>
        <net-file value="network.net.xml"/>
        <route-files value="buses.rou.xml,persons.rou.xml"/>
        <additional-files value="stops.add.xml"/>
    </input>

    <output>
        <emission-output value="output/emissions.xml"/>
        <summary-output value="output/summary.xml"/>
        <tripinfo-output value="output/tripinfo.xml"/>
        <vehroute-output value="output/vehroutes.xml"/>
        <statistic-output value="output/statistics.xml"/>
    </output>

</sumoConfiguration>
-->

<tripinfos xmlns:xsi="http://www.w3.org/2001/XMLSchema-instance" xsi:noNamespaceSchemaLocation="http://sumo.dlr.de/xsd/tripinfo_file.xsd">
    <tripinfo id="b_1" depart="0.00" departLane="-E71_0" departPos="12.10" departSpeed="0.00" departDelay="0.00" arrival="506.00" arrivalLane="-E8_0" arrivalPos="29.34" arrivalSpeed="2.89" duration="506.00" routeLength="2912.78" waitingTime="1.00" waitingCount="1" stopTime="200.00" timeLoss="217.76" rerouteNo="1" devices="vehroute_b_1 tripinfo_b_1 routing_b_1 emissions_b_1" vType="Bus_157_Aubing" speedFactor="1.00" vaporized="">
        <emissions CO_abs="1431.05" CO2_abs="6868644.72" HC_abs="120.73" PMx_abs="799.35" NOx_abs="2729.44" fuel_abs="2207397.84" electricity_abs="0.00"/>
    </tripinfo>
    <tripinfo id="b_0" depart="0.00" departLane="E18_1" departPos="10.93" departSpeed="0.00" departDelay="0.00" arrival="532.00" arrivalLane="E67_0" arrivalPos="342.88" arrivalSpeed="16.80" duration="532.00" routeLength="3169.42" waitingTime="2.00" waitingCount="2" stopTime="200.00" timeLoss="244.77" rerouteNo="0" devices="vehroute_b_0 tripinfo_b_0 routing_b_0 emissions_b_0" vType="Bus_156_Freiham" speedFactor="1.00" vaporized="">
        <emissions CO_abs="1522.03" CO2_abs="7429658.46" HC_abs="128.53" PMx_abs="840.33" NOx_abs="2868.06" fuel_abs="2387691.31" electricity_abs="0.00"/>
    </tripinfo>
    <tripinfo id="b_4" depart="360.00" departLane="-E46_0" departPos="10.78" departSpeed="0.00" departDelay="0.00" arrival="620.00" arrivalLane="-E7_0" arrivalPos="85.94" arrivalSpeed="1.73" duration="260.00" routeLength="1854.92" waitingTime="2.00" waitingCount="2" stopTime="80.00" timeLoss="113.32" rerouteNo="0" devices="vehroute_b_4 tripinfo_b_4 routing_b_4 emissions_b_4" vType="Bus_143_Aubing" speedFactor="1.00" vaporized="">
        <emissions CO_abs="765.10" CO2_abs="4081499.52" HC_abs="67.69" PMx_abs="417.53" NOx_abs="1460.36" fuel_abs="1311684.08" electricity_abs="0.00"/>
    </tripinfo>
    <tripinfo id="b_2" depart="180.00" departLane="E8_0" departPos="11.68" departSpeed="0.00" departDelay="0.00" arrival="690.00" arrivalLane="E71_0" arrivalPos="60.94" arrivalSpeed="11.61" duration="510.00" routeLength="2910.82" waitingTime="1.00" waitingCount="1" stopTime="200.00" timeLoss="223.97" rerouteNo="0" devices="vehroute_b_2 tripinfo_b_2 routing_b_2 emissions_b_2" vType="Bus_157_Freiham" speedFactor="1.00" vaporized="">
        <emissions CO_abs="1436.44" CO2_abs="6792416.72" HC_abs="119.39" PMx_abs="801.34" NOx_abs="2704.69" fuel_abs="2182897.32" electricity_abs="0.00"/>
    </tripinfo>
    <tripinfo id="b_5" depart="360.00" departLane="-E17_0" departPos="12.10" departSpeed="0.00" departDelay="0.00" arrival="717.00" arrivalLane="-E2_0" arrivalPos="26.45" arrivalSpeed="1.65" duration="357.00" routeLength="1998.02" waitingTime="2.00" waitingCount="2" stopTime="140.00" timeLoss="157.50" rerouteNo="0" devices="vehroute_b_5 tripinfo_b_5 routing_b_5 emissions_b_5" vType="Bus_57_Aubing" speedFactor="1.00" vaporized="">
        <emissions CO_abs="982.88" CO2_abs="4517785.32" HC_abs="80.93" PMx_abs="552.76" NOx_abs="1852.65" fuel_abs="1451891.27" electricity_abs="0.00"/>
    </tripinfo>
    <tripinfo id="b_6" depart="540.00" departLane="E7_0" departPos="12.10" departSpeed="0.00" departDelay="0.00" arrival="774.00" arrivalLane="E46_0" arrivalPos="139.78" arrivalSpeed="0.93" duration="234.00" routeLength="1869.42" waitingTime="1.00" waitingCount="1" stopTime="60.00" timeLoss="107.68" rerouteNo="0" devices="vehroute_b_6 tripinfo_b_6 routing_b_6 emissions_b_6" vType="Bus_143_Freiham" speedFactor="1.00" vaporized="">
        <emissions CO_abs="708.22" CO2_abs="4021854.75" HC_abs="65.30" PMx_abs="385.29" NOx_abs="1382.10" fuel_abs="1292516.98" electricity_abs="0.00"/>
    </tripinfo>
    <tripinfo id="b_3" depart="300.00" departLane="-E67_0" departPos="12.10" departSpeed="0.00" departDelay="0.00" arrival="839.00" arrivalLane="-E18_0" arrivalPos="80.22" arrivalSpeed="2.75" duration="539.00" routeLength="3178.74" waitingTime="3.00" waitingCount="3" stopTime="200.00" timeLoss="217.74" rerouteNo="1" devices="vehroute_b_3 tripinfo_b_3 routing_b_3 emissions_b_3" vType="Bus_156_Aubing" speedFactor="1.00" vaporized="">
        <emissions CO_abs="1515.89" CO2_abs="7290326.23" HC_abs="126.90" PMx_abs="844.16" NOx_abs="2857.09" fuel_abs="2342912.05" electricity_abs="0.00"/>
    </tripinfo>
    <tripinfo id="b_7" depart="540.00" departLane="E2_0" departPos="11.89" departSpeed="0.00" departDelay="0.00" arrival="886.00" arrivalLane="E17_0" arrivalPos="283.46" arrivalSpeed="9.12" duration="346.00" routeLength="2012.51" waitingTime="2.00" waitingCount="2" stopTime="140.00" timeLoss="144.28" rerouteNo="0" devices="vehroute_b_7 tripinfo_b_7 routing_b_7 emissions_b_7" vType="Bus_57_Freiham" speedFactor="1.00" vaporized="">
        <emissions CO_abs="975.21" CO2_abs="4630538.31" HC_abs="81.95" PMx_abs="547.85" NOx_abs="1858.24" fuel_abs="1488129.08" electricity_abs="0.00"/>
    </tripinfo>
    <tripinfo id="b_8" depart="600.00" departLane="E18_1" departPos="10.93" departSpeed="0.00" departDelay="0.00" arrival="1133.00" arrivalLane="E67_0" arrivalPos="342.88" arrivalSpeed="16.83" duration="533.00" routeLength="3169.42" waitingTime="3.00" waitingCount="3" stopTime="204.00" timeLoss="243.15" rerouteNo="0" devices="vehroute_b_8 tripinfo_b_8 routing_b_8 emissions_b_8" vType="Bus_156_Freiham" speedFactor="1.00" vaporized="">
        <emissions CO_abs="1533.79" CO2_abs="7502253.83" HC_abs="129.32" PMx_abs="844.56" NOx_abs="2886.41" fuel_abs="2411022.52" electricity_abs="0.00"/>
    </tripinfo>
    <tripinfo id="b_11" depart="780.00" departLane="-E17_0" departPos="12.10" departSpeed="0.00" departDelay="0.00" arrival="1137.00" arrivalLane="-E2_0" arrivalPos="26.45" arrivalSpeed="2.20" duration="357.00" routeLength="1998.02" waitingTime="2.00" waitingCount="2" stopTime="142.00" timeLoss="154.05" rerouteNo="0" devices="vehroute_b_11 tripinfo_b_11 routing_b_11 emissions_b_11" vType="Bus_57_Aubing" speedFactor="1.00" vaporized="">
        <emissions CO_abs="990.62" CO2_abs="4594580.85" HC_abs="81.78" PMx_abs="555.65" NOx_abs="1870.17" fuel_abs="1476572.27" electricity_abs="0.00"/>
    </tripinfo>
    <tripinfo id="b_9" depart="600.00" departLane="-E71_0" departPos="12.10" departSpeed="0.00" departDelay="0.00" arrival="1149.00" arrivalLane="-E8_0" arrivalPos="29.34" arrivalSpeed="3.22" duration="549.00" routeLength="2912.78" waitingTime="31.00" waitingCount="3" stopTime="202.00" timeLoss="258.79" rerouteNo="1" devices="vehroute_b_9 tripinfo_b_9 routing_b_9 emissions_b_9" vType="Bus_157_Aubing" speedFactor="1.00" vaporized="">
        <emissions CO_abs="1522.21" CO2_abs="6938810.42" HC_abs="125.42" PMx_abs="863.08" NOx_abs="2901.55" fuel_abs="2229944.94" electricity_abs="0.00"/>
    </tripinfo>
    <tripinfo id="b_13" depart="960.00" departLane="-E46_0" departPos="10.78" departSpeed="0.00" departDelay="0.00" arrival="1226.00" arrivalLane="-E7_0" arrivalPos="85.94" arrivalSpeed="1.40" duration="266.00" routeLength="1854.92" waitingTime="2.00" waitingCount="1" stopTime="80.00" timeLoss="119.00" rerouteNo="0" devices="vehroute_b_13 tripinfo_b_13 routing_b_13 emissions_b_13" vType="Bus_143_Aubing" speedFactor="1.00" vaporized="">
        <emissions CO_abs="774.15" CO2_abs="4055938.38" HC_abs="67.74" PMx_abs="422.20" NOx_abs="1465.79" fuel_abs="1303468.73" electricity_abs="0.00"/>
    </tripinfo>
    <tripinfo id="b_10" depart="780.00" departLane="E8_0" departPos="11.68" departSpeed="0.00" departDelay="0.00" arrival="1297.00" arrivalLane="E71_0" arrivalPos="60.94" arrivalSpeed="11.60" duration="517.00" routeLength="2910.82" waitingTime="2.00" waitingCount="2" stopTime="204.00" timeLoss="226.14" rerouteNo="0" devices="vehroute_b_10 tripinfo_b_10 routing_b_10 emissions_b_10" vType="Bus_157_Freiham" speedFactor="1.00" vaporized="">
        <emissions CO_abs="1456.60" CO2_abs="6857126.40" HC_abs="121.24" PMx_abs="815.36" NOx_abs="2752.78" fuel_abs="2203693.68" electricity_abs="0.00"/>
    </tripinfo>
    <tripinfo id="b_14" depart="960.00" departLane="E2_0" departPos="11.89" departSpeed="0.00" departDelay="0.00" arrival="1309.00" arrivalLane="E17_0" arrivalPos="283.46" arrivalSpeed="8.10" duration="349.00" routeLength="2017.55" waitingTime="1.00" waitingCount="1" stopTime="140.00" timeLoss="147.50" rerouteNo="0" devices="vehroute_b_14 tripinfo_b_14 routing_b_14 emissions_b_14" vType="Bus_57_Freiham" speedFactor="1.00" vaporized="">
        <emissions CO_abs="988.30" CO2_abs="4723255.70" HC_abs="83.60" PMx_abs="554.47" NOx_abs="1890.46" fuel_abs="1517926.83" electricity_abs="0.00"/>
    </tripinfo>
    <tripinfo id="b_15" depart="1140.00" departLane="E7_0" departPos="12.10" departSpeed="0.00" departDelay="0.00" arrival="1377.00" arrivalLane="E46_0" arrivalPos="139.78" arrivalSpeed="1.81" duration="237.00" routeLength="1869.42" waitingTime="0.00" waitingCount="0" stopTime="60.00" timeLoss="110.36" rerouteNo="0" devices="vehroute_b_15 tripinfo_b_15 routing_b_15 emissions_b_15" vType="Bus_143_Freiham" speedFactor="1.00" vaporized="">
        <emissions CO_abs="720.82" CO2_abs="4043409.21" HC_abs="65.61" PMx_abs="390.35" NOx_abs="1388.17" fuel_abs="1299442.90" electricity_abs="0.00"/>
    </tripinfo>
    <tripinfo id="b_12" depart="900.00" departLane="-E67_0" departPos="12.10" departSpeed="0.00" departDelay="0.00" arrival="1439.00" arrivalLane="-E18_0" arrivalPos="80.22" arrivalSpeed="2.20" duration="539.00" routeLength="3178.74" waitingTime="3.00" waitingCount="3" stopTime="200.00" timeLoss="218.25" rerouteNo="1" devices="vehroute_b_12 tripinfo_b_12 routing_b_12 emissions_b_12" vType="Bus_156_Aubing" speedFactor="1.00" vaporized="">
        <emissions CO_abs="1504.21" CO2_abs="7188417.88" HC_abs="125.30" PMx_abs="833.73" NOx_abs="2815.21" fuel_abs="2310161.29" electricity_abs="0.00"/>
    </tripinfo>
    <tripinfo id="b_18" depart="1200.00" departLane="-E17_0" departPos="12.10" departSpeed="0.00" departDelay="0.00" arrival="1558.00" arrivalLane="-E2_0" arrivalPos="26.45" arrivalSpeed="2.07" duration="358.00" routeLength="1998.02" waitingTime="0.00" waitingCount="0" stopTime="140.00" timeLoss="157.15" rerouteNo="0" devices="vehroute_b_18 tripinfo_b_18 routing_b_18 emissions_b_18" vType="Bus_57_Aubing" speedFactor="1.00" vaporized="">
        <emissions CO_abs="990.00" CO2_abs="4589638.63" HC_abs="81.87" PMx_abs="555.06" NOx_abs="1868.62" fuel_abs="1474984.16" electricity_abs="0.00"/>
    </tripinfo>
    <tripinfo id="b_17" depart="1200.00" departLane="-E71_0" departPos="12.10" departSpeed="0.00" departDelay="0.00" arrival="1707.00" arrivalLane="-E8_0" arrivalPos="29.34" arrivalSpeed="2.82" duration="507.00" routeLength="2912.78" waitingTime="0.00" waitingCount="0" stopTime="202.00" timeLoss="215.70" rerouteNo="1" devices="vehroute_b_17 tripinfo_b_17 routing_b_17 emissions_b_17" vType="Bus_157_Aubing" speedFactor="1.00" vaporized="">
        <emissions CO_abs="1414.46" CO2_abs="6692878.73" HC_abs="118.55" PMx_abs="796.41" NOx_abs="2699.67" fuel_abs="2150908.88" electricity_abs="0.00"/>
    </tripinfo>
    <tripinfo id="b_16" depart="1200.00" departLane="E18_1" departPos="10.93" departSpeed="0.00" departDelay="0.00" arrival="1735.00" arrivalLane="E67_0" arrivalPos="342.88" arrivalSpeed="18.17" duration="535.00" routeLength="3169.42" waitingTime="0.00" waitingCount="0" stopTime="208.00" timeLoss="238.51" rerouteNo="0" devices="vehroute_b_16 tripinfo_b_16 routing_b_16 emissions_b_16" vType="Bus_156_Freiham" speedFactor="1.00" vaporized="">
        <emissions CO_abs="1545.46" CO2_abs="7562311.58" HC_abs="130.91" PMx_abs="857.46" NOx_abs="2934.21" fuel_abs="2430323.16" electricity_abs="0.00"/>
    </tripinfo>
    <tripinfo id="b_20" depart="1380.00" departLane="E2_0" departPos="11.89" departSpeed="0.00" departDelay="0.00" arrival="1743.00" arrivalLane="E17_0" arrivalPos="283.46" arrivalSpeed="8.86" duration="363.00" routeLength="2012.51" waitingTime="9.00" waitingCount="2" stopTime="140.00" timeLoss="161.85" rerouteNo="0" devices="vehroute_b_20 tripinfo_b_20 routing_b_20 emissions_b_20" vType="Bus_57_Freiham" speedFactor="1.00" vaporized="">
        <emissions CO_abs="1010.93" CO2_abs="4660138.94" HC_abs="83.58" PMx_abs="571.99" NOx_abs="1922.91" fuel_abs="1497640.80" electricity_abs="0.00"/>
    </tripinfo>
    <tripinfo id="b_22" depart="1560.00" departLane="-E46_0" departPos="10.78" departSpeed="0.00" departDelay="0.00" arrival="1823.00" arrivalLane="-E7_0" arrivalPos="85.94" arrivalSpeed="1.77" duration="263.00" routeLength="1854.92" waitingTime="0.00" waitingCount="0" stopTime="83.00" timeLoss="111.78" rerouteNo="0" devices="vehroute_b_22 tripinfo_b_22 routing_b_22 emissions_b_22" vType="Bus_143_Aubing" speedFactor="1.00" vaporized="">
        <emissions CO_abs="756.32" CO2_abs="3983845.04" HC_abs="66.55" PMx_abs="414.15" NOx_abs="1438.93" fuel_abs="1280300.10" electricity_abs="0.00"/>
    </tripinfo>
    <tripinfo id="b_19" depart="1380.00" departLane="E8_0" departPos="11.68" departSpeed="0.00" departDelay="0.00" arrival="1895.00" arrivalLane="E71_0" arrivalPos="60.94" arrivalSpeed="12.35" duration="515.00" routeLength="2910.82" waitingTime="1.00" waitingCount="1" stopTime="205.00" timeLoss="223.24" rerouteNo="0" devices="vehroute_b_19 tripinfo_b_19 routing_b_19 emissions_b_19" vType="Bus_157_Freiham" speedFactor="1.00" vaporized="">
        <emissions CO_abs="1442.99" CO2_abs="6790597.04" HC_abs="119.65" PMx_abs="806.03" NOx_abs="2719.99" fuel_abs="2182312.84" electricity_abs="0.00"/>
    </tripinfo>
    <tripinfo id="b_24" depart="1740.00" departLane="E7_0" departPos="12.10" departSpeed="0.00" departDelay="0.00" arrival="1978.00" arrivalLane="E46_0" arrivalPos="139.78" arrivalSpeed="1.12" duration="238.00" routeLength="1869.42" waitingTime="0.00" waitingCount="0" stopTime="61.00" timeLoss="109.12" rerouteNo="0" devices="vehroute_b_24 tripinfo_b_24 routing_b_24 emissions_b_24" vType="Bus_143_Freiham" speedFactor="1.00" vaporized="">
        <emissions CO_abs="715.61" CO2_abs="4007673.57" HC_abs="65.68" PMx_abs="389.61" NOx_abs="1389.76" fuel_abs="1287958.78" electricity_abs="0.00"/>
    </tripinfo>
    <tripinfo id="b_23" depart="1620.00" departLane="-E17_0" departPos="12.10" departSpeed="0.00" departDelay="0.00" arrival="2003.00" arrivalLane="-E2_0" arrivalPos="26.45" arrivalSpeed="1.97" duration="383.00" routeLength="1998.02" waitingTime="23.00" waitingCount="1" stopTime="140.00" timeLoss="183.51" rerouteNo="0" devices="vehroute_b_23 tripinfo_b_23 routing_b_23 emissions_b_23" vType="Bus_57_Aubing" speedFactor="1.00" vaporized="">
        <emissions CO_abs="1042.95" CO2_abs="4664423.58" HC_abs="85.10" PMx_abs="593.24" NOx_abs="1979.50" fuel_abs="1499017.17" electricity_abs="0.00"/>
    </tripinfo>
    <tripinfo id="b_21" depart="1500.00" departLane="-E67_0" departPos="12.10" departSpeed="0.00" departDelay="0.00" arrival="2039.00" arrivalLane="-E18_0" arrivalPos="80.22" arrivalSpeed="2.73" duration="539.00" routeLength="3178.74" waitingTime="3.00" waitingCount="3" stopTime="211.00" timeLoss="207.50" rerouteNo="1" devices="vehroute_b_21 tripinfo_b_21 routing_b_21 emissions_b_21" vType="Bus_156_Aubing" speedFactor="1.00" vaporized="">
        <emissions CO_abs="1527.85" CO2_abs="7375468.75" HC_abs="128.11" PMx_abs="848.70" NOx_abs="2881.13" fuel_abs="2370275.55" electricity_abs="0.00"/>
    </tripinfo>
    <tripinfo id="b_27" depart="1800.00" departLane="E2_0" departPos="11.89" departSpeed="0.00" departDelay="0.00" arrival="2146.00" arrivalLane="E17_0" arrivalPos="283.46" arrivalSpeed="8.53" duration="346.00" routeLength="2012.51" waitingTime="0.00" waitingCount="0" stopTime="145.00" timeLoss="140.39" rerouteNo="0" devices="vehroute_b_27 tripinfo_b_27 routing_b_27 emissions_b_27" vType="Bus_57_Freiham" speedFactor="1.00" vaporized="">
        <emissions CO_abs="978.36" CO2_abs="4685715.74" HC_abs="82.92" PMx_abs="552.49" NOx_abs="1883.77" fuel_abs="1505862.27" electricity_abs="0.00"/>
    </tripinfo>
    <tripinfo id="b_26" depart="1800.00" departLane="-E71_0" departPos="12.10" departSpeed="0.00" departDelay="0.00" arrival="2308.00" arrivalLane="-E8_0" arrivalPos="29.34" arrivalSpeed="3.23" duration="508.00" routeLength="2912.78" waitingTime="2.00" waitingCount="2" stopTime="201.00" timeLoss="219.20" rerouteNo="1" devices="vehroute_b_26 tripinfo_b_26 routing_b_26 emissions_b_26" vType="Bus_157_Aubing" speedFactor="1.00" vaporized="">
        <emissions CO_abs="1426.28" CO2_abs="6735258.70" HC_abs="119.21" PMx_abs="802.45" NOx_abs="2715.60" fuel_abs="2164528.10" electricity_abs="0.00"/>
    </tripinfo>
    <tripinfo id="b_25" depart="1800.00" departLane="E18_1" departPos="10.93" departSpeed="0.00" departDelay="0.00" arrival="2332.00" arrivalLane="E67_0" arrivalPos="342.88" arrivalSpeed="17.45" duration="532.00" routeLength="3169.42" waitingTime="1.00" waitingCount="1" stopTime="206.00" timeLoss="240.08" rerouteNo="0" devices="vehroute_b_25 tripinfo_b_25 routing_b_25 emissions_b_25" vType="Bus_156_Freiham" speedFactor="1.00" vaporized="">
        <emissions CO_abs="1532.38" CO2_abs="7493657.30" HC_abs="129.29" PMx_abs="845.16" NOx_abs="2888.01" fuel_abs="2408259.44" electricity_abs="0.00"/>
    </tripinfo>
    <tripinfo id="b_29" depart="2040.00" departLane="-E17_0" departPos="12.10" departSpeed="0.00" departDelay="0.00" arrival="2397.00" arrivalLane="-E2_0" arrivalPos="26.45" arrivalSpeed="1.77" duration="357.00" routeLength="1998.02" waitingTime="2.00" waitingCount="2" stopTime="143.00" timeLoss="153.08" rerouteNo="0" devices="vehroute_b_29 tripinfo_b_29 routing_b_29 emissions_b_29" vType="Bus_57_Aubing" speedFactor="1.00" vaporized="">
        <emissions CO_abs="988.83" CO2_abs="4625537.85" HC_abs="82.12" PMx_abs="553.98" NOx_abs="1874.58" fuel_abs="1486522.17" electricity_abs="0.00"/>
    </tripinfo>
    <tripinfo id="b_31" depart="2160.00" departLane="-E46_0" departPos="10.78" departSpeed="0.00" departDelay="0.00" arrival="2420.00" arrivalLane="-E7_0" arrivalPos="85.94" arrivalSpeed="1.75" duration="260.00" routeLength="1854.92" waitingTime="0.00" waitingCount="0" stopTime="81.00" timeLoss="112.27" rerouteNo="0" devices="vehroute_b_31 tripinfo_b_31 routing_b_31 emissions_b_31" vType="Bus_143_Aubing" speedFactor="1.00" vaporized="">
        <emissions CO_abs="765.40" CO2_abs="4083875.04" HC_abs="67.70" PMx_abs="416.68" NOx_abs="1455.31" fuel_abs="1312447.19" electricity_abs="0.00"/>
    </tripinfo>
    <tripinfo id="b_28" depart="1980.00" departLane="E8_0" departPos="11.68" departSpeed="0.00" departDelay="0.00" arrival="2496.00" arrivalLane="E71_0" arrivalPos="60.94" arrivalSpeed="11.41" duration="516.00" routeLength="2910.82" waitingTime="3.00" waitingCount="3" stopTime="206.00" timeLoss="223.10" rerouteNo="0" devices="vehroute_b_28 tripinfo_b_28 routing_b_28 emissions_b_28" vType="Bus_157_Freiham" speedFactor="1.00" vaporized="">
        <emissions CO_abs="1456.87" CO2_abs="6853877.98" HC_abs="121.18" PMx_abs="818.73" NOx_abs="2762.06" fuel_abs="2202649.20" electricity_abs="0.00"/>
    </tripinfo>
    <tripinfo id="b_32" depart="2220.00" departLane="E2_0" departPos="11.89" departSpeed="0.00" departDelay="0.00" arrival="2566.00" arrivalLane="E17_0" arrivalPos="283.46" arrivalSpeed="8.26" duration="346.00" routeLength="2012.51" waitingTime="0.00" waitingCount="0" stopTime="145.00" timeLoss="139.30" rerouteNo="0" devices="vehroute_b_32 tripinfo_b_32 routing_b_32 emissions_b_32" vType="Bus_57_Freiham" speedFactor="1.00" vaporized="">
        <emissions CO_abs="985.61" CO2_abs="4717955.97" HC_abs="83.25" PMx_abs="553.93" NOx_abs="1888.89" fuel_abs="1516223.44" electricity_abs="0.00"/>
    </tripinfo>
    <tripinfo id="b_33" depart="2340.00" departLane="E7_0" departPos="12.10" departSpeed="0.00" departDelay="0.00" arrival="2576.00" arrivalLane="E46_0" arrivalPos="139.78" arrivalSpeed="0.96" duration="236.00" routeLength="1869.42" waitingTime="0.00" waitingCount="0" stopTime="60.00" timeLoss="109.28" rerouteNo="0" devices="vehroute_b_33 tripinfo_b_33 routing_b_33 emissions_b_33" vType="Bus_143_Freiham" speedFactor="1.00" vaporized="">
        <emissions CO_abs="715.27" CO2_abs="4011652.47" HC_abs="65.51" PMx_abs="391.65" NOx_abs="1393.94" fuel_abs="1289237.09" electricity_abs="0.00"/>
    </tripinfo>
    <tripinfo id="b_30" depart="2100.00" departLane="-E67_0" departPos="12.10" departSpeed="0.00" departDelay="0.00" arrival="2639.00" arrivalLane="-E18_0" arrivalPos="80.22" arrivalSpeed="2.79" duration="539.00" routeLength="3178.74" waitingTime="2.00" waitingCount="2" stopTime="204.00" timeLoss="213.23" rerouteNo="1" devices="vehroute_b_30 tripinfo_b_30 routing_b_30 emissions_b_30" vType="Bus_156_Aubing" speedFactor="1.00" vaporized="">
        <emissions CO_abs="1528.92" CO2_abs="7407563.48" HC_abs="128.61" PMx_abs="849.05" NOx_abs="2885.30" fuel_abs="2380590.14" electricity_abs="0.00"/>
    </tripinfo>
    <tripinfo id="b_36" depart="2460.00" departLane="-E17_0" departPos="12.10" departSpeed="0.00" departDelay="0.00" arrival="2817.00" arrivalLane="-E2_0" arrivalPos="26.45" arrivalSpeed="1.62" duration="357.00" routeLength="1998.02" waitingTime="1.00" waitingCount="1" stopTime="143.00" timeLoss="154.00" rerouteNo="0" devices="vehroute_b_36 tripinfo_b_36 routing_b_36 emissions_b_36" vType="Bus_57_Aubing" speedFactor="1.00" vaporized="">
        <emissions CO_abs="998.76" CO2_abs="4667295.59" HC_abs="82.90" PMx_abs="561.71" NOx_abs="1897.36" fuel_abs="1499941.31" electricity_abs="0.00"/>
    </tripinfo>
    <tripinfo id="b_35" depart="2400.00" departLane="-E71_0" departPos="12.10" departSpeed="0.00" departDelay="0.00" arrival="2911.00" arrivalLane="-E8_0" arrivalPos="29.34" arrivalSpeed="3.04" duration="511.00" routeLength="2912.78" waitingTime="1.00" waitingCount="1" stopTime="201.00" timeLoss="221.70" rerouteNo="1" devices="vehroute_b_35 tripinfo_b_35 routing_b_35 emissions_b_35" vType="Bus_157_Aubing" speedFactor="1.00" vaporized="">
        <emissions CO_abs="1420.34" CO2_abs="6649580.72" HC_abs="118.18" PMx_abs="802.05" NOx_abs="2703.73" fuel_abs="2136993.34" electricity_abs="0.00"/>
    </tripinfo>
    <tripinfo id="b_34" depart="2400.00" departLane="E18_1" departPos="10.93" departSpeed="0.00" departDelay="0.00" arrival="2935.00" arrivalLane="E67_0" arrivalPos="342.88" arrivalSpeed="18.04" duration="535.00" routeLength="3169.42" waitingTime="0.00" waitingCount="0" stopTime="204.00" timeLoss="244.42" rerouteNo="0" devices="vehroute_b_34 tripinfo_b_34 routing_b_34 emissions_b_34" vType="Bus_156_Freiham" speedFactor="1.00" vaporized="">
        <emissions CO_abs="1532.06" CO2_abs="7415390.78" HC_abs="128.94" PMx_abs="850.75" NOx_abs="2894.61" fuel_abs="2383105.55" electricity_abs="0.00"/>
    </tripinfo>
    <tripinfo id="b_38" depart="2640.00" departLane="E2_0" departPos="11.89" departSpeed="0.00" departDelay="0.00" arrival="2986.00" arrivalLane="E17_0" arrivalPos="283.46" arrivalSpeed="8.16" duration="346.00" routeLength="2017.55" waitingTime="0.00" waitingCount="0" stopTime="143.00" timeLoss="141.30" rerouteNo="0" devices="vehroute_b_38 tripinfo_b_38 routing_b_38 emissions_b_38" vType="Bus_57_Freiham" speedFactor="1.00" vaporized="">
        <emissions CO_abs="979.78" CO2_abs="4691615.03" HC_abs="82.89" PMx_abs="552.01" NOx_abs="1881.71" fuel_abs="1507758.44" electricity_abs="0.00"/>
    </tripinfo>
    <tripinfo id="b_40" depart="2760.00" departLane="-E46_0" departPos="10.78" departSpeed="0.00" departDelay="0.00" arrival="3022.00" arrivalLane="-E7_0" arrivalPos="85.94" arrivalSpeed="2.33" duration="262.00" routeLength="1854.92" waitingTime="0.00" waitingCount="0" stopTime="81.00" timeLoss="114.17" rerouteNo="0" devices="vehroute_b_40 tripinfo_b_40 routing_b_40 emissions_b_40" vType="Bus_143_Aubing" speedFactor="1.00" vaporized="">
        <emissions CO_abs="766.56" CO2_abs="4031328.30" HC_abs="67.51" PMx_abs="423.67" NOx_abs="1469.97" fuel_abs="1295559.13" electricity_abs="0.00"/>
    </tripinfo>
    <tripinfo id="b_37" depart="2580.00" departLane="E8_0" departPos="11.68" departSpeed="0.00" departDelay="0.00" arrival="3095.00" arrivalLane="E71_0" arrivalPos="60.94" arrivalSpeed="12.07" duration="515.00" routeLength="2910.82" waitingTime="1.00" waitingCount="1" stopTime="203.00" timeLoss="225.76" rerouteNo="0" devices="vehroute_b_37 tripinfo_b_37 routing_b_37 emissions_b_37" vType="Bus_157_Freiham" speedFactor="1.00" vaporized="">
        <emissions CO_abs="1443.41" CO2_abs="6793178.28" HC_abs="119.94" PMx_abs="807.28" NOx_abs="2724.75" fuel_abs="2183142.60" electricity_abs="0.00"/>
    </tripinfo>
    <tripinfo id="b_42" depart="2940.00" departLane="E7_0" departPos="12.10" departSpeed="0.00" departDelay="0.00" arrival="3180.00" arrivalLane="E46_0" arrivalPos="139.78" arrivalSpeed="1.04" duration="240.00" routeLength="1869.42" waitingTime="2.00" waitingCount="2" stopTime="60.00" timeLoss="112.97" rerouteNo="0" devices="vehroute_b_42 tripinfo_b_42 routing_b_42 emissions_b_42" vType="Bus_143_Freiham" speedFactor="1.00" vaporized="">
        <emissions CO_abs="730.75" CO2_abs="4118649.45" HC_abs="66.58" PMx_abs="392.98" NOx_abs="1405.93" fuel_abs="1323624.26" electricity_abs="0.00"/>
    </tripinfo>
    <tripinfo id="b_39" depart="2700.00" departLane="-E67_0" departPos="12.10" departSpeed="0.00" departDelay="0.00" arrival="3238.00" arrivalLane="-E18_0" arrivalPos="80.22" arrivalSpeed="2.32" duration="538.00" routeLength="3178.74" waitingTime="1.00" waitingCount="1" stopTime="205.00" timeLoss="211.31" rerouteNo="1" devices="vehroute_b_39 tripinfo_b_39 routing_b_39 emissions_b_39" vType="Bus_156_Aubing" speedFactor="1.00" vaporized="">
        <emissions CO_abs="1513.68" CO2_abs="7293338.16" HC_abs="127.27" PMx_abs="841.43" NOx_abs="2854.19" fuel_abs="2343880.68" electricity_abs="0.00"/>
    </tripinfo>
    <tripinfo id="b_41" depart="2880.00" departLane="-E17_0" departPos="12.10" departSpeed="0.00" departDelay="0.00" arrival="3238.00" arrivalLane="-E2_0" arrivalPos="26.45" arrivalSpeed="1.98" duration="358.00" routeLength="1998.02" waitingTime="1.00" waitingCount="1" stopTime="140.00" timeLoss="158.11" rerouteNo="0" devices="vehroute_b_41 tripinfo_b_41 routing_b_41 emissions_b_41" vType="Bus_57_Aubing" speedFactor="1.00" vaporized="">
        <emissions CO_abs="1001.95" CO2_abs="4671789.30" HC_abs="83.07" PMx_abs="561.89" NOx_abs="1894.82" fuel_abs="1501385.03" electricity_abs="0.00"/>
    </tripinfo>
    <tripinfo id="b_45" depart="3060.00" departLane="E2_0" departPos="11.89" departSpeed="0.00" departDelay="0.00" arrival="3407.00" arrivalLane="E17_0" arrivalPos="283.46" arrivalSpeed="8.48" duration="347.00" routeLength="2017.55" waitingTime="3.00" waitingCount="3" stopTime="140.00" timeLoss="145.80" rerouteNo="0" devices="vehroute_b_45 tripinfo_b_45 routing_b_45 emissions_b_45" vType="Bus_57_Freiham" speedFactor="1.00" vaporized="">
        <emissions CO_abs="986.94" CO2_abs="4725702.68" HC_abs="83.25" PMx_abs="554.20" NOx_abs="1887.58" fuel_abs="1518712.96" electricity_abs="0.00"/>
    </tripinfo>
    <tripinfo id="b_44" depart="3000.00" departLane="-E71_0" departPos="12.10" departSpeed="0.00" departDelay="0.00" arrival="3508.00" arrivalLane="-E8_0" arrivalPos="29.34" arrivalSpeed="2.60" duration="508.00" routeLength="2912.78" waitingTime="0.00" waitingCount="0" stopTime="206.00" timeLoss="213.29" rerouteNo="1" devices="vehroute_b_44 tripinfo_b_44 routing_b_44 emissions_b_44" vType="Bus_157_Aubing" speedFactor="1.00" vaporized="">
        <emissions CO_abs="1415.22" CO2_abs="6609721.35" HC_abs="117.57" PMx_abs="799.77" NOx_abs="2694.14" fuel_abs="2124183.07" electricity_abs="0.00"/>
    </tripinfo>
    <tripinfo id="b_43" depart="3000.00" departLane="E18_1" departPos="10.93" departSpeed="0.00" departDelay="0.00" arrival="3557.00" arrivalLane="E67_0" arrivalPos="342.88" arrivalSpeed="17.63" duration="557.00" routeLength="3169.42" waitingTime="17.00" waitingCount="2" stopTime="203.00" timeLoss="266.71" rerouteNo="0" devices="vehroute_b_43 tripinfo_b_43 routing_b_43 emissions_b_43" vType="Bus_156_Freiham" speedFactor="1.00" vaporized="">
        <emissions CO_abs="1568.94" CO2_abs="7418862.49" HC_abs="130.17" PMx_abs="871.82" NOx_abs="2942.25" fuel_abs="2384220.01" electricity_abs="0.00"/>
    </tripinfo>
    <tripinfo id="b_49" depart="3360.00" departLane="-E46_0" departPos="10.78" departSpeed="0.00" departDelay="0.00" arrival="3622.00" arrivalLane="-E7_0" arrivalPos="85.94" arrivalSpeed="2.05" duration="262.00" routeLength="1854.92" waitingTime="0.00" waitingCount="0" stopTime="81.00" timeLoss="113.78" rerouteNo="0" devices="vehroute_b_49 tripinfo_b_49 routing_b_49 emissions_b_49" vType="Bus_143_Aubing" speedFactor="1.00" vaporized="">
        <emissions CO_abs="769.93" CO2_abs="4098974.75" HC_abs="68.16" PMx_abs="420.64" NOx_abs="1469.83" fuel_abs="1317300.42" electricity_abs="0.00"/>
    </tripinfo>