<?xml version="1.0" encoding="UTF-8"?>

<!-- generated on 2026-01-18T10:54:32.880229+01:00 by Eclipse SUMO GUI v1_25_0+0150-04664dcec11
<sumoConfiguration xmlns:xsi="http://www.w3.org/2001/XMLSchema-instance" xsi:noNamespaceSchemaLocation="http://sumo.dlr.de/xsd/sumoConfiguration.xsd">

    <input>
        <net-file value="network.net.xml"/>
        <route-files value="arts.rou.xml,persons.rou.xml"/>
    </input>

    <output>
        <emission-output value="output/emissions.xml"/>
        <summary-output value="output/summary.xml"/>
        <tripinfo-output value="output/tripinfo.xml"/>
        <vehroute-output value="output/vehroutes.xml"/>
        <statistic-output value="output/statistics.xml"/>
    </output>

    <time>
        <begin value="0"/>
    </time>

    <taxi_device>
        <device.taxi.dispatch-algorithm value="greedyShared"/>
    </taxi_device>

</sumoConfiguration>
-->

<tripinfos xmlns:xsi="http://www.w3.org/2001/XMLSchema-instance" xsi:noNamespaceSchemaLocation="http://sumo.dlr.de/xsd/tripinfo_file.xsd">
    <personinfo id="t_1" depart="3720.00" type="DEFAULT_PEDTYPE" speedFactor="1.01" duration="1360.00" waitingTime="22.00" timeLoss="101.37" traveltime="198.00">
        <ride waitingTime="16.00" vehicle="drt_5" depart="3736.00" arrival="3838.00" arrivalPos="205.59" duration="102.00" routeLength="1776.46" timeLoss="48.03"/>
        <stop duration="1140.00" arrival="4978.00" arrivalPos="205.59" actType="waiting"/>
        <ride waitingTime="6.00" vehicle="drt_0" depart="4984.00" arrival="5080.00" arrivalPos="170.85" duration="96.00" routeLength="1697.67" timeLoss="53.34"/>
    </personinfo>
    <personinfo id="t_0" depart="3702.00" type="DEFAULT_PEDTYPE" speedFactor="1.02" duration="1545.00" waitingTime="192.00" timeLoss="108.00" traveltime="213.00">
        <ride waitingTime="66.00" vehicle="drt_8" depart="3768.00" arrival="3880.00" arrivalPos="205.59" duration="112.00" routeLength="1857.72" timeLoss="52.49"/>
        <stop duration="1140.00" arrival="5020.00" arrivalPos="205.59" actType="waiting"/>
        <ride waitingTime="126.00" vehicle="drt_17" depart="5146.00" arrival="5247.00" arrivalPos="154.25" duration="101.00" routeLength="1522.05" timeLoss="55.51"/>
    </personinfo>
    <personinfo id="t_2" depart="3871.00" type="DEFAULT_PEDTYPE" speedFactor="0.97" duration="1421.00" waitingTime="114.00" timeLoss="78.99" traveltime="167.00">
        <ride waitingTime="55.00" vehicle="drt_14" depart="3926.00" arrival="4025.00" arrivalPos="205.59" duration="99.00" routeLength="1794.39" timeLoss="44.77"/>
        <stop duration="1140.00" arrival="5165.00" arrivalPos="205.59" actType="waiting"/>
        <ride waitingTime="59.00" vehicle="drt_6" depart="5224.00" arrival="5292.00" arrivalPos="86.14" duration="68.00" routeLength="1287.94" timeLoss="34.22"/>
    </personinfo>
    <personinfo id="t_3" depart="4112.00" type="DEFAULT_PEDTYPE" speedFactor="0.89" duration="1440.00" waitingTime="106.00" timeLoss="98.22" traveltime="194.00">
        <ride waitingTime="53.00" vehicle="drt_15" depart="4165.00" arrival="4271.00" arrivalPos="205.59" duration="106.00" routeLength="1881.70" timeLoss="51.48"/>
        <stop duration="1140.00" arrival="5411.00" arrivalPos="205.59" actType="waiting"/>
        <ride waitingTime="53.00" vehicle="drt_11" depart="5464.00" arrival="5552.00" arrivalPos="88.54" duration="88.00" routeLength="1520.50" timeLoss="46.74"/>
    </personinfo>
    <personinfo id="t_4" depart="4302.00" type="DEFAULT_PEDTYPE" speedFactor="0.83" duration="1448.00" waitingTime="84.00" timeLoss="112.57" traveltime="224.00">
        <ride waitingTime="55.00" vehicle="drt_6" depart="4357.00" arrival="4475.00" arrivalPos="205.59" duration="118.00" routeLength="2321.85" timeLoss="60.96"/>
        <stop duration="1140.00" arrival="5615.00" arrivalPos="205.59" actType="waiting"/>
        <ride waitingTime="29.00" vehicle="drt_8" depart="5644.00" arrival="5750.00" arrivalPos="53.54" duration="106.00" routeLength="1841.67" timeLoss="51.62"/>
    </personinfo>
    <personinfo id="t_5" depart="4366.00" type="DEFAULT_PEDTYPE" speedFactor="0.87" duration="1420.00" waitingTime="93.00" timeLoss="110.23" traveltime="187.00">
        <ride waitingTime="40.00" vehicle="drt_11" depart="4406.00" arrival="4511.00" arrivalPos="205.59" duration="105.00" routeLength="1703.13" timeLoss="58.95"/>
        <stop duration="1140.00" arrival="5651.00" arrivalPos="205.59" actType="waiting"/>
        <ride waitingTime="53.00" vehicle="drt_12" depart="5704.00" arrival="5786.00" arrivalPos="90.12" duration="82.00" routeLength="1273.43" timeLoss="51.28"/>
    </personinfo>
    <personinfo id="t_7" depart="4483.00" type="DEFAULT_PEDTYPE" speedFactor="0.95" duration="1432.00" waitingTime="114.00" timeLoss="103.28" traveltime="178.00">
        <ride waitingTime="91.00" vehicle="drt_0" depart="4574.00" arrival="4666.00" arrivalPos="205.59" duration="92.00" routeLength="1359.10" timeLoss="50.82"/>
        <stop duration="1140.00" arrival="5806.00" arrivalPos="205.59" actType="waiting"/>
        <ride waitingTime="23.00" vehicle="drt_14" depart="5829.00" arrival="5915.00" arrivalPos="151.47" duration="86.00" routeLength="1439.36" timeLoss="52.46"/>
    </personinfo>
    <personinfo id="t_6" depart="4445.00" type="DEFAULT_PEDTYPE" speedFactor="0.92" duration="1474.00" waitingTime="121.00" timeLoss="120.72" traveltime="213.00">
        <ride waitingTime="103.00" vehicle="drt_0" depart="4548.00" arrival="4666.00" arrivalPos="205.59" duration="118.00" routeLength="1776.41" timeLoss="67.71"/>
        <stop duration="1140.00" arrival="5806.00" arrivalPos="205.59" actType="waiting"/>
        <ride waitingTime="18.00" vehicle="drt_13" depart="5824.00" arrival="5919.00" arrivalPos="170.85" duration="95.00" routeLength="1697.67" timeLoss="53.01"/>
    </personinfo>
    <personinfo id="t_8" depart="4602.00" type="DEFAULT_PEDTYPE" speedFactor="1.13" duration="1329.00" waitingTime="44.00" timeLoss="79.88" traveltime="145.00">
        <ride waitingTime="35.00" vehicle="drt_10" depart="4637.00" arrival="4735.00" arrivalPos="245.13" duration="98.00" routeLength="1285.09" timeLoss="53.03"/>
        <stop duration="1140.00" arrival="5875.00" arrivalPos="245.13" actType="waiting"/>
        <ride waitingTime="9.00" vehicle="drt_10" depart="5884.00" arrival="5931.00" arrivalPos="117.41" duration="47.00" routeLength="585.10" timeLoss="26.86"/>
    </personinfo>
    <personinfo id="t_9" depart="4808.00" type="DEFAULT_PEDTYPE" speedFactor="0.93" duration="1507.00" waitingTime="187.00" timeLoss="83.12" traveltime="180.00">
        <ride waitingTime="124.00" vehicle="drt_13" depart="4932.00" arrival="5041.00" arrivalPos="205.59" duration="109.00" routeLength="2114.86" timeLoss="47.95"/>
        <stop duration="1140.00" arrival="6181.00" arrivalPos="205.59" actType="waiting"/>
        <ride waitingTime="63.00" vehicle="drt_6" depart="6244.00" arrival="6315.00" arrivalPos="22.32" duration="71.00" routeLength="1505.10" timeLoss="35.17"/>
    </personinfo>
    <personinfo id="t_10" depart="4983.00" type="DEFAULT_PEDTYPE" speedFactor="1.18" duration="1399.00" waitingTime="96.00" timeLoss="88.11" traveltime="163.00">
        <ride waitingTime="77.00" vehicle="drt_17" depart="5060.00" arrival="5145.00" arrivalPos="205.59" duration="85.00" routeLength="1193.02" timeLoss="45.17"/>
        <stop duration="1140.00" arrival="6285.00" arrivalPos="205.59" actType="waiting"/>
        <ride waitingTime="19.00" vehicle="drt_15" depart="6304.00" arrival="6382.00" arrivalPos="152.60" duration="78.00" routeLength="1031.34" timeLoss="42.94"/>
    </personinfo>
    <personinfo id="t_11" depart="5119.00" type="DEFAULT_PEDTYPE" speedFactor="1.15" duration="1367.00" waitingTime="88.00" timeLoss="74.17" traveltime="139.00">
        <ride waitingTime="64.00" vehicle="drt_12" depart="5183.00" arrival="5260.00" arrivalPos="205.59" duration="77.00" routeLength="1361.28" timeLoss="38.05"/>
        <stop duration="1140.00" arrival="6400.00" arrivalPos="205.59" actType="waiting"/>
        <ride waitingTime="24.00" vehicle="drt_5" depart="6424.00" arrival="6486.00" arrivalPos="100.93" duration="62.00" routeLength="979.06" timeLoss="36.12"/>
    </personinfo>
    <personinfo id="t_12" depart="5431.00" type="DEFAULT_PEDTYPE" speedFactor="1.01" duration="1467.00" waitingTime="210.00" timeLoss="63.48" traveltime="117.00">
        <ride waitingTime="79.00" vehicle="drt_12" depart="5510.00" arrival="5572.00" arrivalPos="205.59" duration="62.00" routeLength="958.58" timeLoss="30.67"/>
        <stop duration="1140.00" arrival="6712.00" arrivalPos="205.59" actType="waiting"/>
        <ride waitingTime="131.00" vehicle="drt_2" depart="6843.00" arrival="6898.00" arrivalPos="139.78" duration="55.00" routeLength="744.39" timeLoss="32.81"/>
    </personinfo>
    <personinfo id="t_13" depart="5754.00" type="DEFAULT_PEDTYPE" speedFactor="1.17" duration="1424.00" waitingTime="71.00" timeLoss="109.87" traveltime="213.00">
        <ride waitingTime="28.00" vehicle="drt_6" depart="5782.00" arrival="5901.00" arrivalPos="205.59" duration="119.00" routeLength="1872.60" timeLoss="61.31"/>
        <stop duration="1140.00" arrival="7041.00" arrivalPos="205.59" actType="waiting"/>
        <ride waitingTime="43.00" vehicle="drt_9" depart="7084.00" arrival="7178.00" arrivalPos="140.27" duration="94.00" routeLength="1503.31" timeLoss="48.57"/>
    </personinfo>
    <personinfo id="t_14" depart="6661.00" type="DEFAULT_PEDTYPE" speedFactor="0.99" duration="1461.00" waitingTime="152.00" timeLoss="83.35" traveltime="169.00">
        <ride waitingTime="90.00" vehicle="drt_2" depart="6751.00" arrival="6842.00" arrivalPos="205.59" duration="91.00" routeLength="1566.70" timeLoss="44.61"/>
        <stop duration="1140.00" arrival="7982.00" arrivalPos="205.59" actType="waiting"/>
        <ride waitingTime="62.00" vehicle="drt_0" depart="8044.00" arrival="8122.00" arrivalPos="52.71" duration="78.00" routeLength="1482.22" timeLoss="38.74"/>
    </personinfo>
    <personinfo id="t_16" depart="6837.00" type="DEFAULT_PEDTYPE" speedFactor="0.97" duration="1408.00" waitingTime="100.00" timeLoss="77.98" traveltime="168.00">
        <ride waitingTime="48.00" vehicle="drt_9" depart="6885.00" arrival="6977.00" arrivalPos="205.59" duration="92.00" routeLength="1566.62" timeLoss="42.08"/>
        <stop duration="1140.00" arrival="8117.00" arrivalPos="205.59" actType="waiting"/>
        <ride waitingTime="52.00" vehicle="drt_6" depart="8169.00" arrival="8245.00" arrivalPos="52.71" duration="76.00" routeLength="1482.22" timeLoss="35.90"/>
    </personinfo>
    <personinfo id="t_15" depart="6782.00" type="DEFAULT_PEDTYPE" speedFactor="1.02" duration="1466.00" waitingTime="109.00" timeLoss="95.35" traveltime="217.00">
        <ride waitingTime="62.00" vehicle="drt_9" depart="6844.00" arrival="6977.00" arrivalPos="205.59" duration="133.00" routeLength="2210.11" timeLoss="57.64"/>
        <stop duration="1140.00" arrival="8117.00" arrivalPos="205.59" actType="waiting"/>
        <ride waitingTime="47.00" vehicle="drt_3" depart="8164.00" arrival="8248.00" arrivalPos="5.00" duration="84.00" routeLength="1891.87" timeLoss="37.71"/>
    </personinfo>
    <personinfo id="t_17" depart="6940.00" type="DEFAULT_PEDTYPE" speedFactor="1.18" duration="1430.00" waitingTime="91.00" timeLoss="88.37" traveltime="199.00">
        <ride waitingTime="66.00" vehicle="drt_6" depart="7006.00" arrival="7119.00" arrivalPos="205.59" duration="113.00" routeLength="2238.40" timeLoss="45.56"/>
        <stop duration="1140.00" arrival="8259.00" arrivalPos="205.59" actType="waiting"/>
        <ride waitingTime="25.00" vehicle="drt_8" depart="8284.00" arrival="8370.00" arrivalPos="108.84" duration="86.00" routeLength="1708.95" timeLoss="42.81"/>
    </personinfo>
    <personinfo id="t_18" depart="7318.00" type="DEFAULT_PEDTYPE" speedFactor="1.10" duration="1347.00" waitingTime="31.00" timeLoss="103.46" traveltime="176.00">
        <ride waitingTime="22.00" vehicle="drt_0" depart="7340.00" arrival="7435.00" arrivalPos="205.59" duration="95.00" routeLength="1463.71" timeLoss="52.16"/>
        <stop duration="1140.00" arrival="8575.00" arrivalPos="205.59" actType="waiting"/>
        <ride waitingTime="9.00" vehicle="drt_3" depart="8584.00" arrival="8665.00" arrivalPos="90.12" duration="81.00" routeLength="1273.43" timeLoss="51.30"/>
    </personinfo>
    <personinfo id="t_22" depart="7426.00" type="DEFAULT_PEDTYPE" speedFactor="1.09" duration="1363.00" waitingTime="85.00" timeLoss="74.59" traveltime="138.00">
        <ride waitingTime="47.00" vehicle="drt_11" depart="7473.00" arrival="7553.00" arrivalPos="151.47" duration="80.00" routeLength="1207.58" timeLoss="40.06"/>
        <stop duration="1140.00" arrival="8693.00" arrivalPos="151.47" actType="waiting"/>
        <ride waitingTime="38.00" vehicle="drt_0" depart="8731.00" arrival="8789.00" arrivalPos="86.14" duration="58.00" routeLength="821.77" timeLoss="34.53"/>
    </personinfo>
    <personinfo id="t_20" depart="7344.00" type="DEFAULT_PEDTYPE" speedFactor="1.03" duration="1571.00" waitingTime="252.00" timeLoss="79.36" traveltime="179.00">
        <ride waitingTime="104.00" vehicle="drt_6" depart="7448.00" arrival="7560.00" arrivalPos="205.59" duration="112.00" routeLength="2114.84" timeLoss="48.91"/>
        <stop duration="1140.00" arrival="8700.00" arrivalPos="205.59" actType="waiting"/>
        <ride waitingTime="148.00" vehicle="drt_4" depart="8848.00" arrival="8915.00" arrivalPos="22.32" duration="67.00" routeLength="1505.10" timeLoss="30.46"/>
    </personinfo>
    <personinfo id="t_19" depart="7329.00" type="DEFAULT_PEDTYPE" speedFactor="0.90" duration="1626.00" waitingTime="271.00" timeLoss="110.57" traveltime="215.00">
        <ride waitingTime="96.00" vehicle="drt_17" depart="7425.00" arrival="7536.00" arrivalPos="205.59" duration="111.00" routeLength="1857.69" timeLoss="52.29"/>
        <stop duration="1140.00" arrival="8676.00" arrivalPos="205.59" actType="waiting"/>
        <ride waitingTime="175.00" vehicle="drt_16" depart="8851.00" arrival="8955.00" arrivalPos="154.25" duration="104.00" routeLength="1522.05" timeLoss="58.28"/>
    </personinfo>
    <personinfo id="t_23" depart="7630.00" type="DEFAULT_PEDTYPE" speedFactor="1.04" duration="1377.00" waitingTime="97.00" timeLoss="78.72" traveltime="140.00">
        <ride waitingTime="74.00" vehicle="drt_3" depart="7704.00" arrival="7781.00" arrivalPos="205.59" duration="77.00" routeLength="1361.28" timeLoss="38.83"/>
        <stop duration="1140.00" arrival="8921.00" arrivalPos="205.59" actType="waiting"/>
        <ride waitingTime="23.00" vehicle="drt_6" depart="8944.00" arrival="9007.00" arrivalPos="100.93" duration="63.00" routeLength="979.06" timeLoss="39.89"/>
    </personinfo>
    <personinfo id="t_21" depart="7388.00" type="DEFAULT_PEDTYPE" speedFactor="0.96" duration="1644.00" waitingTime="327.00" timeLoss="77.76" traveltime="177.00">
        <ride waitingTime="121.00" vehicle="drt_0" depart="7509.00" arrival="7616.00" arrivalPos="205.59" duration="107.00" routeLength="2114.85" timeLoss="43.99"/>
        <stop duration="1140.00" arrival="8756.00" arrivalPos="205.59" actType="waiting"/>
        <ride waitingTime="206.00" vehicle="drt_12" depart="8962.00" arrival="9032.00" arrivalPos="22.32" duration="70.00" routeLength="1505.10" timeLoss="33.77"/>
    </personinfo>
    <personinfo id="t_24" depart="7672.00" type="DEFAULT_PEDTYPE" speedFactor="1.04" duration="1402.00" waitingTime="82.00" timeLoss="75.75" traveltime="180.00">
        <ride waitingTime="67.00" vehicle="drt_11" depart="7739.00" arrival="7849.00" arrivalPos="205.59" duration="110.00" routeLength="2114.85" timeLoss="45.94"/>
        <stop duration="1140.00" arrival="8989.00" arrivalPos="205.59" actType="waiting"/>
        <ride waitingTime="15.00" vehicle="drt_5" depart="9004.00" arrival="9074.00" arrivalPos="22.32" duration="70.00" routeLength="1505.10" timeLoss="29.81"/>
    </personinfo>
    <personinfo id="t_25" depart="7778.00" type="DEFAULT_PEDTYPE" speedFactor="1.09" duration="1435.00" waitingTime="101.00" timeLoss="99.26" traveltime="194.00">
        <ride waitingTime="42.00" vehicle="drt_8" depart="7820.00" arrival="7925.00" arrivalPos="205.59" duration="105.00" routeLength="1881.71" timeLoss="50.82"/>
        <stop duration="1140.00" arrival="9065.00" arrivalPos="205.59" actType="waiting"/>
        <ride waitingTime="59.00" vehicle="drt_0" depart="9124.00" arrival="9213.00" arrivalPos="88.54" duration="89.00" routeLength="1520.50" timeLoss="48.44"/>
    </personinfo>
    <personinfo id="t_26" depart="7780.00" type="DEFAULT_PEDTYPE" speedFactor="1.00" duration="1543.00" waitingTime="236.00" timeLoss="80.92" traveltime="167.00">
        <ride waitingTime="81.00" vehicle="drt_3" depart="7861.00" arrival="7959.00" arrivalPos="205.59" duration="98.00" routeLength="1794.35" timeLoss="44.97"/>
        <stop duration="1140.00" arrival="9099.00" arrivalPos="205.59" actType="waiting"/>
        <ride waitingTime="155.00" vehicle="drt_4" depart="9254.00" arrival="9323.00" arrivalPos="86.14" duration="69.00" routeLength="1287.94" timeLoss="35.95"/>
    </personinfo>
    <personinfo id="t_27" depart="7923.00" type="DEFAULT_PEDTYPE" speedFactor="0.90" duration="1458.00" waitingTime="112.00" timeLoss="111.28" traveltime="206.00">
        <ride waitingTime="88.00" vehicle="drt_1" depart="8011.00" arrival="8140.00" arrivalPos="151.47" duration="129.00" routeLength="1921.12" timeLoss="68.45"/>
        <stop duration="1140.00" arrival="9280.00" arrivalPos="151.47" actType="waiting"/>
        <ride waitingTime="24.00" vehicle="drt_3" depart="9304.00" arrival="9381.00" arrivalPos="291.29" duration="77.00" routeLength="1120.05" timeLoss="42.83"/>
    </personinfo>
    <personinfo id="t_28" depart="7957.00" type="DEFAULT_PEDTYPE" speedFactor="0.88" duration="1541.00" waitingTime="228.00" timeLoss="109.88" traveltime="173.00">
        <ride waitingTime="157.00" vehicle="drt_1" depart="8114.00" arrival="8207.00" arrivalPos="90.12" duration="93.00" routeLength="1121.56" timeLoss="63.86"/>
        <stop duration="1140.00" arrival="9347.00" arrivalPos="90.12" actType="waiting"/>
        <ride waitingTime="71.00" vehicle="drt_4" depart="9418.00" arrival="9498.00" arrivalPos="152.60" duration="80.00" routeLength="1055.65" timeLoss="46.02"/>
    </personinfo>
    <personinfo id="t_29" depart="7991.00" type="DEFAULT_PEDTYPE" speedFactor="0.85" duration="1528.00" waitingTime="166.00" timeLoss="95.79" traveltime="222.00">
        <ride waitingTime="128.00" vehicle="drt_9" depart="8119.00" arrival="8246.00" arrivalPos="205.59" duration="127.00" routeLength="2210.18" timeLoss="52.55"/>
        <stop duration="1140.00" arrival="9386.00" arrivalPos="205.59" actType="waiting"/>
        <ride waitingTime="38.00" vehicle="drt_11" depart="9424.00" arrival="9519.00" arrivalPos="123.09" duration="95.00" routeLength="2009.96" timeLoss="43.24"/>
    </personinfo>
    <personinfo id="t_31" depart="8197.00" type="DEFAULT_PEDTYPE" speedFactor="1.17" duration="1378.00" waitingTime="50.00" timeLoss="106.08" traveltime="188.00">
        <ride waitingTime="33.00" vehicle="drt_13" depart="8230.00" arrival="8327.00" arrivalPos="205.59" duration="97.00" routeLength="1586.93" timeLoss="53.97"/>
        <stop duration="1140.00" arrival="9467.00" arrivalPos="205.59" actType="waiting"/>
        <ride waitingTime="17.00" vehicle="drt_1" depart="9484.00" arrival="9575.00" arrivalPos="90.60" duration="91.00" routeLength="1363.41" timeLoss="52.11"/>
    </personinfo>
    <personinfo id="t_30" depart="8117.00" type="DEFAULT_PEDTYPE" speedFactor="0.85" duration="1536.00" waitingTime="163.00" timeLoss="109.17" traveltime="233.00">
        <ride waitingTime="132.00" vehicle="drt_3" depart="8249.00" arrival="8377.00" arrivalPos="205.59" duration="128.00" routeLength="2210.12" timeLoss="60.82"/>
        <stop duration="1140.00" arrival="9517.00" arrivalPos="205.59" actType="waiting"/>
        <ride waitingTime="31.00" vehicle="drt_5" depart="9548.00" arrival="9653.00" arrivalPos="123.09" duration="105.00" routeLength="2009.96" timeLoss="48.36"/>
    </personinfo>
    <personinfo id="t_33" depart="8268.00" type="DEFAULT_PEDTYPE" speedFactor="1.10" duration="1395.00" waitingTime="104.00" timeLoss="75.15" traveltime="151.00">
        <ride waitingTime="83.00" vehicle="drt_0" depart="8351.00" arrival="8443.00" arrivalPos="151.47" duration="92.00" routeLength="1528.13" timeLoss="42.56"/>
        <stop duration="1140.00" arrival="9583.00" arrivalPos="151.47" actType="waiting"/>
        <ride waitingTime="21.00" vehicle="drt_3" depart="9604.00" arrival="9663.00" arrivalPos="22.32" duration="59.00" routeLength="1038.93" timeLoss="32.59"/>
    </personinfo>
    <personinfo id="t_32" depart="8198.00" type="DEFAULT_PEDTYPE" speedFactor="1.02" duration="1508.00" waitingTime="163.00" timeLoss="111.53" traveltime="205.00">
        <ride waitingTime="107.00" vehicle="drt_11" depart="8305.00" arrival="8408.00" arrivalPos="205.59" duration="103.00" routeLength="1776.49" timeLoss="54.15"/>
        <stop duration="1140.00" arrival="9548.00" arrivalPos="205.59" actType="waiting"/>
        <ride waitingTime="56.00" vehicle="drt_8" depart="9604.00" arrival="9706.00" arrivalPos="170.85" duration="102.00" routeLength="1697.67" timeLoss="57.38"/>
    </personinfo>
    <personinfo id="t_36" depart="8322.00" type="DEFAULT_PEDTYPE" speedFactor="0.90" duration="1393.00" waitingTime="85.00" timeLoss="100.43" traveltime="168.00">
        <ride waitingTime="29.00" vehicle="drt_13" depart="8351.00" arrival="8432.00" arrivalPos="90.12" duration="81.00" routeLength="1255.86" timeLoss="51.94"/>
        <stop duration="1140.00" arrival="9572.00" arrivalPos="90.12" actType="waiting"/>
        <ride waitingTime="56.00" vehicle="drt_1" depart="9628.00" arrival="9715.00" arrivalPos="119.00" duration="87.00" routeLength="1166.42" timeLoss="48.49"/>
    </personinfo>
    <personinfo id="t_34" depart="8271.00" type="DEFAULT_PEDTYPE" speedFactor="1.00" duration="1459.00" waitingTime="118.00" timeLoss="113.02" traveltime="201.00">
        <ride waitingTime="59.00" vehicle="drt_6" depart="8330.00" arrival="8465.00" arrivalPos="205.59" duration="135.00" routeLength="1863.81" timeLoss="77.82"/>
        <stop duration="1140.00" arrival="9605.00" arrivalPos="205.59" actType="waiting"/>
        <ride waitingTime="59.00" vehicle="drt_15" depart="9664.00" arrival="9730.00" arrivalPos="90.74" duration="66.00" routeLength="1104.84" timeLoss="35.20"/>
    </personinfo>
    <personinfo id="t_35" depart="8276.00" type="DEFAULT_PEDTYPE" speedFactor="1.00" duration="1484.00" waitingTime="161.00" timeLoss="107.94" traveltime="183.00">
        <ride waitingTime="97.00" vehicle="drt_6" depart="8373.00" arrival="8465.00" arrivalPos="205.59" duration="92.00" routeLength="1359.15" timeLoss="51.88"/>
        <stop duration="1140.00" arrival="9605.00" arrivalPos="205.59" actType="waiting"/>
        <ride waitingTime="64.00" vehicle="drt_17" depart="9669.00" arrival="9760.00" arrivalPos="151.47" duration="91.00" routeLength="1439.36" timeLoss="56.06"/>
    </personinfo>
    <personinfo id="t_37" depart="8410.00" type="DEFAULT_PEDTYPE" speedFactor="1.14" duration="1498.00" waitingTime="142.00" timeLoss="126.58" traveltime="216.00">
        <ride waitingTime="93.00" vehicle="drt_0" depart="8503.00" arrival="8655.00" arrivalPos="205.59" duration="152.00" routeLength="2103.26" timeLoss="91.72"/>
        <stop duration="1140.00" arrival="9795.00" arrivalPos="205.59" actType="waiting"/>
        <ride waitingTime="49.00" vehicle="drt_4" depart="9844.00" arrival="9908.00" arrivalPos="90.74" duration="64.00" routeLength="1104.84" timeLoss="34.86"/>
    </personinfo>
    <personinfo id="t_38" depart="8428.00" type="DEFAULT_PEDTYPE" speedFactor="1.02" duration="1505.00" waitingTime="179.00" timeLoss="110.10" traveltime="186.00">
        <ride waitingTime="124.00" vehicle="drt_0" depart="8552.00" arrival="8655.00" arrivalPos="205.59" duration="103.00" routeLength="1432.48" timeLoss="63.90"/>
        <stop duration="1140.00" arrival="9795.00" arrivalPos="205.59" actType="waiting"/>
        <ride waitingTime="55.00" vehicle="drt_16" depart="9850.00" arrival="9933.00" arrivalPos="152.60" duration="83.00" routeLength="1031.34" timeLoss="46.20"/>
    </personinfo>
    <personinfo id="t_41" depart="8609.00" type="DEFAULT_PEDTYPE" speedFactor="1.12" duration="1350.00" waitingTime="70.00" timeLoss="71.81" traveltime="140.00">
        <ride waitingTime="52.00" vehicle="drt_18" depart="8661.00" arrival="8746.00" arrivalPos="245.13" duration="85.00" routeLength="1142.48" timeLoss="42.26"/>
        <stop duration="1140.00" arrival="9886.00" arrivalPos="245.13" actType="waiting"/>
        <ride waitingTime="18.00" vehicle="drt_18" depart="9904.00" arrival="9959.00" arrivalPos="117.56" duration="55.00" routeLength="754.71" timeLoss="29.56"/>
    </personinfo>
    <personinfo id="t_39" depart="8487.00" type="DEFAULT_PEDTYPE" speedFactor="0.97" duration="1534.00" waitingTime="249.00" timeLoss="75.51" traveltime="145.00">
        <ride waitingTime="43.00" vehicle="drt_5" depart="8530.00" arrival="8608.00" arrivalPos="205.59" duration="78.00" routeLength="1245.35" timeLoss="39.17"/>
        <stop duration="1140.00" arrival="9748.00" arrivalPos="205.59" actType="waiting"/>
        <ride waitingTime="206.00" vehicle="drt_5" depart="9954.00" arrival="10021.00" arrivalPos="171.46" duration="67.00" routeLength="964.17" timeLoss="36.34"/>
    </personinfo>
    <personinfo id="t_40" depart="8509.00" type="DEFAULT_PEDTYPE" speedFactor="1.08" duration="1536.00" waitingTime="216.00" timeLoss="92.15" traveltime="180.00">
        <ride waitingTime="45.00" vehicle="drt_8" depart="8554.00" arrival="8646.00" arrivalPos="205.59" duration="92.00" routeLength="1566.61" timeLoss="44.03"/>
        <stop duration="1140.00" arrival="9786.00" arrivalPos="205.59" actType="waiting"/>
        <ride waitingTime="171.00" vehicle="drt_14" depart="9957.00" arrival="10045.00" arrivalPos="52.71" duration="88.00" routeLength="1482.22" timeLoss="48.12"/>
    </personinfo>
    <personinfo id="t_43" depart="8682.00" type="DEFAULT_PEDTYPE" speedFactor="0.99" duration="1421.00" waitingTime="106.00" timeLoss="99.91" traveltime="175.00">
        <ride waitingTime="59.00" vehicle="drt_4" depart="8741.00" arrival="8837.00" arrivalPos="205.59" duration="96.00" routeLength="1463.70" timeLoss="52.41"/>
        <stop duration="1140.00" arrival="9977.00" arrivalPos="205.59" actType="waiting"/>
        <ride waitingTime="47.00" vehicle="drt_1" depart="10024.00" arrival="10103.00" arrivalPos="90.12" duration="79.00" routeLength="1273.43" timeLoss="47.50"/>
    </personinfo>
    <personinfo id="t_42" depart="8662.00" type="DEFAULT_PEDTYPE" speedFactor="1.02" duration="1446.00" waitingTime="124.00" timeLoss="104.57" traveltime="182.00">
        <ride waitingTime="82.00" vehicle="drt_16" depart="8744.00" arrival="8847.00" arrivalPos="205.59" duration="103.00" routeLength="1463.68" timeLoss="55.30"/>
        <stop duration="1140.00" arrival="9987.00" arrivalPos="205.59" actType="waiting"/>
        <ride waitingTime="42.00" vehicle="drt_3" depart="10029.00" arrival="10108.00" arrivalPos="90.12" duration="79.00" routeLength="1273.43" timeLoss="49.28"/>
    </personinfo>
    <personinfo id="t_47" depart="8714.00" type="DEFAULT_PEDTYPE" speedFactor="0.91" duration="1459.00" waitingTime="145.00" timeLoss="86.47" traveltime="174.00">
        <ride waitingTime="88.00" vehicle="drt_15" depart="8802.00" arrival="8912.00" arrivalPos="288.38" duration="110.00" routeLength="1694.65" timeLoss="53.56"/>
        <stop duration="1140.00" arrival="10052.00" arrivalPos="288.38" actType="waiting"/>
        <ride waitingTime="57.00" vehicle="drt_15" depart="10109.00" arrival="10173.00" arrivalPos="117.41" duration="64.00" routeLength="1037.79" timeLoss="32.91"/>
    </personinfo>
    <personinfo id="t_45" depart="8707.00" type="DEFAULT_PEDTYPE" speedFactor="0.88" duration="1503.00" waitingTime="179.00" timeLoss="105.32" traveltime="184.00">
        <ride waitingTime="137.00" vehicle="drt_3" depart="8844.00" arrival="8932.00" arrivalPos="151.47" duration="88.00" routeLength="1270.92" timeLoss="46.14"/>
        <stop duration="1140.00" arrival="10072.00" arrivalPos="151.47" actType="waiting"/>
        <ride waitingTime="42.00" vehicle="drt_9" depart="10114.00" arrival="10210.00" arrivalPos="154.25" duration="96.00" routeLength="1055.88" timeLoss="59.18"/>
    </personinfo>
    <personinfo id="t_48" depart="8834.00" type="DEFAULT_PEDTYPE" speedFactor="1.04" duration="1449.00" waitingTime="126.00" timeLoss="106.92" traveltime="183.00">
        <ride waitingTime="93.00" vehicle="drt_0" depart="8927.00" arrival="9031.00" arrivalPos="205.59" duration="104.00" routeLength="1703.15" timeLoss="59.35"/>
        <stop duration="1140.00" arrival="10171.00" arrivalPos="205.59" actType="waiting"/>
        <ride waitingTime="33.00" vehicle="drt_8" depart="10204.00" arrival="10283.00" arrivalPos="90.12" duration="79.00" routeLength="1273.43" timeLoss="47.57"/>
    </personinfo>
    <personinfo id="t_44" depart="8706.00" type="DEFAULT_PEDTYPE" speedFactor="0.94" duration="1592.00" waitingTime="273.00" timeLoss="102.05" traveltime="179.00">
        <ride waitingTime="148.00" vehicle="drt_13" depart="8854.00" arrival="8949.00" arrivalPos="288.38" duration="95.00" routeLength="1196.90" timeLoss="54.01"/>
        <stop duration="1140.00" arrival="10089.00" arrivalPos="288.38" actType="waiting"/>
        <ride waitingTime="125.00" vehicle="drt_14" depart="10214.00" arrival="10298.00" arrivalPos="151.01" duration="84.00" routeLength="1087.19" timeLoss="48.05"/>
    </personinfo>
    <personinfo id="t_50" depart="9029.00" type="DEFAULT_PEDTYPE" speedFactor="1.02" duration="1383.00" waitingTime="63.00" timeLoss="107.15" traveltime="180.00">