<?xml version="1.0" encoding="UTF-8"?>

<!-- generated on 2026-01-18T10:54:32.881049+01:00 by Eclipse SUMO GUI v1_25_0+0150-04664dcec11
<sumoConfiguration xmlns:xsi="http://www.w3.org/2001/XMLSchema-instance" xsi:noNamespaceSchemaLocation="http://sumo.dlr.de/xsd/sumoConfiguration.xsd">

    <input>
        <net-file value="network.net.xml"/>
        <route-files value="arts.rou.xml,persons.rou.xml"/>
    </input>

    <output>
        <emission-output value="output/emissions.xml"/>
        <summary-output value="output/summary.xml"/>
        <tripinfo-output value="output/tripinfo.xml"/>
        <vehroute-output value="output/vehroutes.xml"/>
        <statistic-output value="output/statistics.xml"/>
    </output>

    <time>
        <begin value="0"/>
    </time>

    <taxi_device>
        <device.taxi.dispatch-algorithm value="greedyShared"/>
    </taxi_device>

</sumoConfiguration>
-->

<routes xmlns:xsi="http://www.w3.org/2001/XMLSchema-instance" xsi:noNamespaceSchemaLocation="http://sumo.dlr.de/xsd/routes_file.xsd">
    <person id="t_1" depart="3720.00" arrival="5080.00">
        <ride from="-E64" to="E22" arrivalPos="205.59" lines="taxi"/>
        <stop lane="E22_0" endPos="205.59" duration="1140.00"/>
        <ride from="E22" to="-E64" arrivalPos="170.85" lines="taxi"/>
    </person>

    <person id="t_0" depart="3702.00" arrival="5247.00">
        <ride from="E5" to="E22" arrivalPos="205.59" lines="taxi"/>
        <stop lane="E22_0" endPos="205.59" duration="1140.00"/>
        <ride from="E22" to="E5" arrivalPos="154.25" lines="taxi"/>
    </person>

    <person id="t_2" depart="3871.00" arrival="5292.00">
        <ride from="E11" to="E22" arrivalPos="205.59" lines="taxi"/>
        <stop lane="E22_0" endPos="205.59" duration="1140.00"/>
        <ride from="E22" to="E11" arrivalPos="86.14" lines="taxi"/>
    </person>

    <person id="t_3" depart="4112.00" arrival="5552.00">
        <ride from="-E62" to="E22" arrivalPos="205.59" lines="taxi"/>
        <stop lane="E22_0" endPos="205.59" duration="1140.00"/>
        <ride from="E22" to="-E62" arrivalPos="88.54" lines="taxi"/>
    </person>

    <person id="t_4" depart="4302.00" arrival="5750.00">
        <ride from="-E19" to="E22" arrivalPos="205.59" lines="taxi"/>
        <stop lane="E22_0" endPos="205.59" duration="1140.00"/>
        <ride from="E22" to="-E19" arrivalPos="53.54" lines="taxi"/>
    </person>

    <person id="t_5" depart="4366.00" arrival="5786.00">
        <ride from="-E42" to="E22" arrivalPos="205.59" lines="taxi"/>
        <stop lane="E22_0" endPos="205.59" duration="1140.00"/>
        <ride from="E22" to="-E42" arrivalPos="90.12" lines="taxi"/>
    </person>

    <person id="t_7" depart="4483.00" arrival="5915.00">
        <ride from="-E41" to="E22" arrivalPos="205.59" lines="taxi"/>
        <stop lane="E22_0" endPos="205.59" duration="1140.00"/>
        <ride from="E22" to="-E41" arrivalPos="151.47" lines="taxi"/>
    </person>

    <person id="t_6" depart="4445.00" arrival="5919.00">
        <ride from="-E64" to="E22" arrivalPos="205.59" lines="taxi"/>
        <stop lane="E22_0" endPos="205.59" duration="1140.00"/>
        <ride from="E22" to="-E64" arrivalPos="170.85" lines="taxi"/>
    </person>

    <person id="t_8" depart="4602.00" arrival="5931.00">
        <ride from="-E30" to="-E27" arrivalPos="245.13" lines="taxi"/>
        <stop lane="-E27_0" endPos="245.13" duration="1140.00"/>
        <ride from="-E27" to="-E30" arrivalPos="117.41" lines="taxi"/>
    </person>

    <person id="t_9" depart="4808.00" arrival="6315.00">
        <ride from="-E0" to="E22" arrivalPos="205.59" lines="taxi"/>
        <stop lane="E22_0" endPos="205.59" duration="1140.00"/>
        <ride from="E22" to="-E0" arrivalPos="22.32" lines="taxi"/>
    </person>

    <person id="t_10" depart="4983.00" arrival="6382.00">
        <ride from="-E24" to="E22" arrivalPos="205.59" lines="taxi"/>
        <stop lane="E22_0" endPos="205.59" duration="1140.00"/>
        <ride from="E22" to="-E24" arrivalPos="152.60" lines="taxi"/>
    </person>

    <person id="t_11" depart="5119.00" arrival="6486.00">
        <ride from="-E43" to="E22" arrivalPos="205.59" lines="taxi"/>
        <stop lane="E22_0" endPos="205.59" duration="1140.00"/>
        <ride from="E22" to="-E43" arrivalPos="100.93" lines="taxi"/>
    </person>

    <person id="t_12" depart="5431.00" arrival="6898.00">
        <ride from="-E46" to="E22" arrivalPos="205.59" lines="taxi"/>
        <stop lane="E22_0" endPos="205.59" duration="1140.00"/>
        <ride from="E22" to="-E46" arrivalPos="139.78" lines="taxi"/>
    </person>

    <person id="t_13" depart="5754.00" arrival="7178.00">
        <ride from="-E4" to="E22" arrivalPos="205.59" lines="taxi"/>
        <stop lane="E22_0" endPos="205.59" duration="1140.00"/>
        <ride from="E22" to="-E4" arrivalPos="140.27" lines="taxi"/>
    </person>

    <person id="t_14" depart="6661.00" arrival="8122.00">
        <ride from="-E52" to="E22" arrivalPos="205.59" lines="taxi"/>
        <stop lane="E22_0" endPos="205.59" duration="1140.00"/>
        <ride from="E22" to="-E52" arrivalPos="52.71" lines="taxi"/>
    </person>

    <person id="t_16" depart="6837.00" arrival="8245.00">
        <ride from="-E52" to="E22" arrivalPos="205.59" lines="taxi"/>
        <stop lane="E22_0" endPos="205.59" duration="1140.00"/>
        <ride from="E22" to="-E52" arrivalPos="52.71" lines="taxi"/>
    </person>

    <person id="t_15" depart="6782.00" arrival="8248.00">
        <ride from="-E12" to="E22" arrivalPos="205.59" lines="taxi"/>
        <stop lane="E22_0" endPos="205.59" duration="1140.00"/>
        <ride from="E22" to="-E12" arrivalPos="5.00" lines="taxi"/>
    </person>

    <person id="t_17" depart="6940.00" arrival="8370.00">
        <ride from="-E15" to="E22" arrivalPos="205.59" lines="taxi"/>
        <stop lane="E22_0" endPos="205.59" duration="1140.00"/>
        <ride from="E22" to="-E15" arrivalPos="108.84" lines="taxi"/>
    </person>

    <person id="t_18" depart="7318.00" arrival="8665.00">
        <ride from="-E42" to="E22" arrivalPos="205.59" lines="taxi"/>
        <stop lane="E22_0" endPos="205.59" duration="1140.00"/>
        <ride from="E22" to="-E42" arrivalPos="90.12" lines="taxi"/>
    </person>

    <person id="t_22" depart="7426.00" arrival="8789.00">
        <ride from="E11" to="E41" arrivalPos="151.47" lines="taxi"/>
        <stop lane="E41_0" endPos="151.47" duration="1140.00"/>
        <ride from="E41" to="E11" arrivalPos="86.14" lines="taxi"/>
    </person>

    <person id="t_20" depart="7344.00" arrival="8915.00">
        <ride from="-E0" to="E22" arrivalPos="205.59" lines="taxi"/>
        <stop lane="E22_0" endPos="205.59" duration="1140.00"/>
        <ride from="E22" to="-E0" arrivalPos="22.32" lines="taxi"/>
    </person>

    <person id="t_19" depart="7329.00" arrival="8955.00">
        <ride from="E5" to="E22" arrivalPos="205.59" lines="taxi"/>
        <stop lane="E22_0" endPos="205.59" duration="1140.00"/>
        <ride from="E22" to="E5" arrivalPos="154.25" lines="taxi"/>
    </person>

    <person id="t_23" depart="7630.00" arrival="9007.00">
        <ride from="-E43" to="E22" arrivalPos="205.59" lines="taxi"/>
        <stop lane="E22_0" endPos="205.59" duration="1140.00"/>
        <ride from="E22" to="-E43" arrivalPos="100.93" lines="taxi"/>
    </person>

    <person id="t_21" depart="7388.00" arrival="9032.00">
        <ride from="-E0" to="E22" arrivalPos="205.59" lines="taxi"/>
        <stop lane="E22_0" endPos="205.59" duration="1140.00"/>
        <ride from="E22" to="-E0" arrivalPos="22.32" lines="taxi"/>
    </person>

    <person id="t_24" depart="7672.00" arrival="9074.00">
        <ride from="-E0" to="E22" arrivalPos="205.59" lines="taxi"/>
        <stop lane="E22_0" endPos="205.59" duration="1140.00"/>
        <ride from="E22" to="-E0" arrivalPos="22.32" lines="taxi"/>
    </person>

    <person id="t_25" depart="7778.00" arrival="9213.00">
        <ride from="-E62" to="E22" arrivalPos="205.59" lines="taxi"/>
        <stop lane="E22_0" endPos="205.59" duration="1140.00"/>
        <ride from="E22" to="-E62" arrivalPos="88.54" lines="taxi"/>
    </person>

    <person id="t_26" depart="7780.00" arrival="9323.00">
        <ride from="E11" to="E22" arrivalPos="205.59" lines="taxi"/>
        <stop lane="E22_0" endPos="205.59" duration="1140.00"/>
        <ride from="E22" to="E11" arrivalPos="86.14" lines="taxi"/>
    </person>

    <person id="t_27" depart="7923.00" arrival="9381.00">
        <ride from="E9" to="E41" arrivalPos="151.47" lines="taxi"/>
        <stop lane="E41_0" endPos="151.47" duration="1140.00"/>
        <ride from="E41" to="E9" arrivalPos="291.29" lines="taxi"/>
    </person>

    <person id="t_28" depart="7957.00" arrival="9498.00">
        <ride from="E24" to="-E42" arrivalPos="90.12" lines="taxi"/>
        <stop lane="-E42_0" endPos="90.12" duration="1140.00"/>
        <ride from="-E42" to="E24" arrivalPos="152.60" lines="taxi"/>
    </person>

    <person id="t_29" depart="7991.00" arrival="9519.00">
        <ride from="-E12" to="E22" arrivalPos="205.59" lines="taxi"/>
        <stop lane="E22_0" endPos="205.59" duration="1140.00"/>
        <ride from="E22" to="-E12" arrivalPos="123.09" lines="taxi"/>
    </person>

    <person id="t_31" depart="8197.00" arrival="9575.00">
        <ride from="-E53" to="E22" arrivalPos="205.59" lines="taxi"/>
        <stop lane="E22_0" endPos="205.59" duration="1140.00"/>
        <ride from="E22" to="-E53" arrivalPos="90.60" lines="taxi"/>
    </person>

    <person id="t_30" depart="8117.00" arrival="9653.00">
        <ride from="-E12" to="E22" arrivalPos="205.59" lines="taxi"/>
        <stop lane="E22_0" endPos="205.59" duration="1140.00"/>
        <ride from="E22" to="-E12" arrivalPos="123.09" lines="taxi"/>
    </person>

    <person id="t_33" depart="8268.00" arrival="9663.00">
        <ride from="-E0" to="E41" arrivalPos="151.47" lines="taxi"/>
        <stop lane="E41_0" endPos="151.47" duration="1140.00"/>
        <ride from="E41" to="-E0" arrivalPos="22.32" lines="taxi"/>
    </person>

    <person id="t_32" depart="8198.00" arrival="9706.00">
        <ride from="-E64" to="E22" arrivalPos="205.59" lines="taxi"/>
        <stop lane="E22_0" endPos="205.59" duration="1140.00"/>
        <ride from="E22" to="-E64" arrivalPos="170.85" lines="taxi"/>
    </person>

    <person id="t_36" depart="8322.00" arrival="9715.00">
        <ride from="E23" to="-E42" arrivalPos="90.12" lines="taxi"/>
        <stop lane="-E42_0" endPos="90.12" duration="1140.00"/>
        <ride from="-E42" to="E23" arrivalPos="119.00" lines="taxi"/>
    </person>

    <person id="t_34" depart="8271.00" arrival="9730.00">
        <ride from="-E55" to="E22" arrivalPos="205.59" lines="taxi"/>
        <stop lane="E22_0" endPos="205.59" duration="1140.00"/>
        <ride from="E22" to="-E55" arrivalPos="90.74" lines="taxi"/>
    </person>

    <person id="t_35" depart="8276.00" arrival="9760.00">
        <ride from="-E41" to="E22" arrivalPos="205.59" lines="taxi"/>
        <stop lane="E22_0" endPos="205.59" duration="1140.00"/>
        <ride from="E22" to="-E41" arrivalPos="151.47" lines="taxi"/>
    </person>

    <person id="t_37" depart="8410.00" arrival="9908.00">
        <ride from="-E55" to="E22" arrivalPos="205.59" lines="taxi"/>
        <stop lane="E22_0" endPos="205.59" duration="1140.00"/>
        <ride from="E22" to="-E55" arrivalPos="90.74" lines="taxi"/>
    </person>

    <person id="t_38" depart="8428.00" arrival="9933.00">
        <ride from="-E24" to="E22" arrivalPos="205.59" lines="taxi"/>
        <stop lane="E22_0" endPos="205.59" duration="1140.00"/>
        <ride from="E22" to="-E24" arrivalPos="152.60" lines="taxi"/>
    </person>

    <person id="t_41" depart="8609.00" arrival="9959.00">
        <ride from="-E32" to="-E27" arrivalPos="245.13" lines="taxi"/>
        <stop lane="-E27_0" endPos="245.13" duration="1140.00"/>
        <ride from="-E27" to="-E32" arrivalPos="117.56" lines="taxi"/>
    </person>

    <person id="t_39" depart="8487.00" arrival="10021.00">
        <ride from="-E39" to="E22" arrivalPos="205.59" lines="taxi"/>
        <stop lane="E22_0" endPos="205.59" duration="1140.00"/>
        <ride from="E22" to="-E39" arrivalPos="171.46" lines="taxi"/>
    </person>

    <person id="t_40" depart="8509.00" arrival="10045.00">
        <ride from="-E52" to="E22" arrivalPos="205.59" lines="taxi"/>
        <stop lane="E22_0" endPos="205.59" duration="1140.00"/>
        <ride from="E22" to="-E52" arrivalPos="52.71" lines="taxi"/>
    </person>

    <person id="t_43" depart="8682.00" arrival="10103.00">
        <ride from="-E42" to="E22" arrivalPos="205.59" lines="taxi"/>
        <stop lane="E22_0" endPos="205.59" duration="1140.00"/>
        <ride from="E22" to="-E42" arrivalPos="90.12" lines="taxi"/>
    </person>

    <person id="t_42" depart="8662.00" arrival="10108.00">
        <ride from="-E42" to="E22" arrivalPos="205.59" lines="taxi"/>
        <stop lane="E22_0" endPos="205.59" duration="1140.00"/>
        <ride from="E22" to="-E42" arrivalPos="90.12" lines="taxi"/>
    </person>

    <person id="t_47" depart="8714.00" arrival="10173.00">
        <ride from="E30" to="-E54" arrivalPos="288.38" lines="taxi"/>
        <stop lane="-E54_0" endPos="288.38" duration="1140.00"/>
        <ride from="-E54" to="E30" arrivalPos="117.41" lines="taxi"/>
    </person>

    <person id="t_45" depart="8707.00" arrival="10210.00">
        <ride from="E5" to="E41" arrivalPos="151.47" lines="taxi"/>
        <stop lane="E41_0" endPos="151.47" duration="1140.00"/>
        <ride from="E41" to="E5" arrivalPos="154.25" lines="taxi"/>
    </person>

    <person id="t_48" depart="8834.00" arrival="10283.00">
        <ride from="-E42" to="E22" arrivalPos="205.59" lines="taxi"/>
        <stop lane="E22_0" endPos="205.59" duration="1140.00"/>
        <ride from="E22" to="-E42" arrivalPos="90.12" lines="taxi"/>
    </person>

    <person id="t_44" depart="8706.00" arrival="10298.00">
        <ride from="-E3" to="-E54" arrivalPos="288.38" lines="taxi"/>
        <stop lane="-E54_0" endPos="288.38" duration="1140.00"/>
        <ride from="-E54" to="-E3" arrivalPos="151.01" lines="taxi"/>
    </person>

    <person id="t_50" depart="9029.00" arrival="10412.00">
        <ride from="-E41" to="E22" arrivalPos="205.59" lines="taxi"/>
        <stop lane="E22_0" endPos="205.59" duration="1140.00"/>
        <ride from="E22" to="-E41" arrivalPos="151.47" lines="taxi"/>
    </person>

    <person id="t_46" depart="8711.00" arrival="10446.00">
        <ride from="E5" to="E22" arrivalPos="205.59" lines="taxi"/>
        <stop lane="E22_0" endPos="205.59" duration="1140.00"/>
        <ride from="E22" to="E5" arrivalPos="154.25" lines="taxi"/>
    </person>

    <person id="t_51" depart="9046.00" arrival="10457.00">
        <ride from="-E52" to="E22" arrivalPos="205.59" lines="taxi"/>
        <stop lane="E22_0" endPos="205.59" duration="1140.00"/>
        <ride from="E22" to="-E52" arrivalPos="52.71" lines="taxi"/>
    </person>

    <person id="t_52" depart="9068.00" arrival="10515.00">
        <ride from="-E50" to="E22" arrivalPos="205.59" lines="taxi"/>
        <stop lane="E22_0" endPos="205.59" duration="1140.00"/>
        <ride from="E22" to="-E50" arrivalPos="107.59" lines="taxi"/>
    </person>

    <person id="t_49" depart="8837.00" arrival="10529.00">
        <ride from="-E53" to="E22" arrivalPos="205.59" lines="taxi"/>
        <stop lane="E22_0" endPos="205.59" duration="1140.00"/>
        <ride from="E22" to="-E53" arrivalPos="90.60" lines="taxi"/>
    </person>

    <person id="t_53" depart="9089.00" arrival="10530.00">
        <ride from="E11" to="E22" arrivalPos="205.59" lines="taxi"/>
        <stop lane="E22_0" endPos="205.59" duration="1140.00"/>
        <ride from="E22" to="E11" arrivalPos="86.14" lines="taxi"/>
    </person>

    <person id="t_55" depart="9294.00" arrival="10759.00">
        <ride from="-E57" to="E22" arrivalPos="205.59" lines="taxi"/>
        <stop lane="E22_0" endPos="205.59" duration="1140.00"/>
        <ride from="E22" to="-E57" arrivalPos="110.94" lines="taxi"/>
    </person>

    <person id="t_54" depart="9289.00" arrival="10781.00">
        <ride from="-E4" to="E22" arrivalPos="205.59" lines="taxi"/>
        <stop lane="E22_0" endPos="205.59" duration="1140.00"/>
        <ride from="E22" to="-E4" arrivalPos="140.27" lines="taxi"/>
    </person>

    <person id="t_57" depart="9399.00" arrival="10830.00">
        <ride from="-E0" to="E41" arrivalPos="151.47" lines="taxi"/>
        <stop lane="E41_0" endPos="151.47" duration="1140.00"/>
        <ride from="E41" to="-E0" arrivalPos="22.32" lines="taxi"/>
    </person>

    <person id="t_58" depart="9464.00" arrival="10860.00">
        <ride from="E46" to="-E42" arrivalPos="90.12" lines="taxi"/>
        <stop lane="-E42_0" endPos="90.12" duration="1140.00"/>
        <ride from="-E42" to="E46" arrivalPos="139.78" lines="taxi"/>
    </person>

    <person id="t_56" depart="9329.00" arrival="10890.00">
        <ride from="-E19" to="E22" arrivalPos="205.59" lines="taxi"/>
        <stop lane="E22_0" endPos="205.59" duration="1140.00"/>
        <ride from="E22" to="-E19" arrivalPos="53.54" lines="taxi"/>
    </person>

    <person id="t_60" depart="9483.00" arrival="10925.00">
        <ride from="E28" to="-E42" arrivalPos="90.12" lines="taxi"/>
        <stop lane="-E42_0" endPos="90.12" duration="1140.00"/>
        <ride from="-E42" to="E28" arrivalPos="156.50" lines="taxi"/>
    </person>

    <person id="t_59" depart="9476.00" arrival="10978.00">
        <ride from="E9" to="E41" arrivalPos="151.47" lines="taxi"/>
        <stop lane="E41_0" endPos="151.47" duration="1140.00"/>
        <ride from="E41" to="E9" arrivalPos="291.29" lines="taxi"/>
    </person>

    <person id="t_61" depart="9588.00" arrival="11049.00">
        <ride from="-E56" to="E22" arrivalPos="205.59" lines="taxi"/>
        <stop lane="E22_0" endPos="205.59" duration="1140.00"/>
        <ride from="E22" to="-E56" arrivalPos="95.12" lines="taxi"/>
    </person>

    <person id="t_62" depart="9650.00" arrival="11114.00">
        <ride from="E9" to="E41" arrivalPos="151.47" lines="taxi"/>
        <stop lane="E41_0" endPos="151.47" duration="1140.00"/>
        <ride from="E41" to="E9" arrivalPos="291.29" lines="taxi"/>
    </person>

    <person id="t_64" depart="9775.00" arrival="11178.00">
        <ride from="E6" to="E22" arrivalPos="205.59" lines="taxi"/>
        <stop lane="E22_0" endPos="205.59" duration="1140.00"/>
        <ride from="E22" to="E6" arrivalPos="114.25" lines="taxi"/>
    </person>

    <person id="t_66" depart="9804.00" arrival="11185.00">
        <ride from="-E46" to="E22" arrivalPos="205.59" lines="taxi"/>
        <stop lane="E22_0" endPos="205.59" duration="1140.00"/>
        <ride from="E22" to="-E46" arrivalPos="139.78" lines="taxi"/>
    </person>

    <person id="t_65" depart="9781.00" arrival="11191.00">
        <ride from="-E24" to="E22" arrivalPos="205.59" lines="taxi"/>
        <stop lane="E22_0" endPos="205.59" duration="1140.00"/>
        <ride from="E22" to="-E24" arrivalPos="152.60" lines="taxi"/>
    </person>

    <person id="t_63" depart="9744.00" arrival="11204.00">
        <ride from="-E62" to="E22" arrivalPos="205.59" lines="taxi"/>
        <stop lane="E22_0" endPos="205.59" duration="1140.00"/>
        <ride from="E22" to="-E62" arrivalPos="88.54" lines="taxi"/>
    </person>

    <person id="t_67" depart="9814.00" arrival="11280.00">
        <ride from="-E3" to="-E54" arrivalPos="288.38" lines="taxi"/>
        <stop lane="-E54_0" endPos="288.38" duration="1140.00"/>
        <ride from="-E54" to="-E3" arrivalPos="151.01" lines="taxi"/>
    </person>

    <person id="t_69" depart="9886.00" arrival="11311.00">
        <ride from="-E0" to="E41" arrivalPos="151.47" lines="taxi"/>
        <stop lane="E41_0" endPos="151.47" duration="1140.00"/>
        <ride from="E41" to="-E0" arrivalPos="22.32" lines="taxi"/>
    </person>

    <person id="t_68" depart="9844.00" arrival="11376.00">
        <ride from="-E12" to="E22" arrivalPos="205.59" lines="taxi"/>
        <stop lane="E22_0" endPos="205.59" duration="1140.00"/>
        <ride from="E22" to="-E12" arrivalPos="123.09" lines="taxi"/>
    </person>

    <person id="t_70" depart="9905.00" arrival="11469.00">
        <ride from="-E19" to="E41" arrivalPos="151.47" lines="taxi"/>
        <stop lane="E41_0" endPos="151.47" duration="1140.00"/>
        <ride from="E41" to="-E19" arrivalPos="53.54" lines="taxi"/>
    </person>

    <person id="t_72" depart="10022.00" arrival="11476.00">
        <ride from="-E0" to="E22" arrivalPos="205.59" lines="taxi"/>
        <stop lane="E22_0" endPos="205.59" duration="1140.00"/>
        <ride from="E22" to="-E0" arrivalPos="22.32" lines="taxi"/>
    </person>

    <person id="t_71" depart="10010.00" arrival="11500.00">
        <ride from="-E53" to="E22" arrivalPos="205.59" lines="taxi"/>
        <stop lane="E22_0" endPos="205.59" duration="1140.00"/>
        <ride from="E22" to="-E53" arrivalPos="90.60" lines="taxi"/>
    </person>

    <person id="t_73" depart="10081.00" arrival="11628.00">
        <ride from="-E19" to="E22" arrivalPos="205.59" lines="taxi"/>
        <stop lane="E22_0" endPos="205.59" duration="1140.00"/>
        <ride from="E22" to="-E19" arrivalPos="53.54" lines="taxi"/>
    </person>

    <person id="t_79" depart="10278.00" arrival="11637.00">
        <ride from="-E30" to="-E27" arrivalPos="245.13" lines="taxi"/>
        <stop lane="-E27_0" endPos="245.13" duration="1140.00"/>
        <ride from="-E27" to="-E30" arrivalPos="117.41" lines="taxi"/>
    </person>

    <person id="t_77" depart="10212.00" arrival="11663.00">
        <ride from="-E46" to="E22" arrivalPos="205.59" lines="taxi"/>
        <stop lane="E22_0" endPos="205.59" duration="1140.00"/>
        <ride from="E22" to="-E46" arrivalPos="139.78" lines="taxi"/>
    </person>

    <person id="t_74" depart="10145.00" arrival="11671.00">
        <ride from="-E62" to="E22" arrivalPos="205.59" lines="taxi"/>
        <stop lane="E22_0" endPos="205.59" duration="1140.00"/>
        <ride from="E22" to="-E62" arrivalPos="88.54" lines="taxi"/>
    </person>

    <person id="t_78" depart="10246.00" arrival="11671.00">
        <ride from="-E62" to="E22" arrivalPos="205.59" lines="taxi"/>
        <stop lane="E22_0" endPos="205.59" duration="1140.00"/>
        <ride from="E22" to="-E62" arrivalPos="88.54" lines="taxi"/>
    </person>

    <person id="t_75" depart="10149.00" arrival="11695.00">
        <ride from="-E30" to="-E27" arrivalPos="245.13" lines="taxi"/>
        <stop lane="-E27_0" endPos="245.13" duration="1140.00"/>
        <ride from="-E27" to="-E30" arrivalPos="117.41" lines="taxi"/>
    </person>

    <person id="t_80" depart="10322.00" arrival="11729.00">
        <ride from="-E41" to="E22" arrivalPos="205.59" lines="taxi"/>
        <stop lane="E22_0" endPos="205.59" duration="1140.00"/>
        <ride from="E22" to="-E41" arrivalPos="151.47" lines="taxi"/>
    </person>

    <person id="t_76" depart="10181.00" arrival="11822.00">
        <ride from="-E17" to="E22" arrivalPos="205.59" lines="taxi"/>
        <stop lane="E22_0" endPos="205.59" duration="1140.00"/>
        <ride from="E22" to="-E17" arrivalPos="283.15" lines="taxi"/>
    </person>

    <person id="t_81" depart="10480.00" arrival="11912.00">
        <ride from="-E12" to="E41" arrivalPos="151.47" lines="taxi"/>
        <stop lane="E41_0" endPos="151.47" duration="1140.00"/>
        <ride from="E41" to="-E12" arrivalPos="123.09" lines="taxi"/>
    </person>

    <person id="t_83" depart="10577.00" arrival="11971.00">
        <ride from="E23" to="-E42" arrivalPos="90.12" lines="taxi"/>
        <stop lane="-E42_0" endPos="90.12" duration="1140.00"/>
        <ride from="-E42" to="E23" arrivalPos="119.00" lines="taxi"/>
    </person>

    <person id="t_82" depart="10574.00" arrival="11999.00">
        <ride from="E43" to="-E54" arrivalPos="288.38" lines="taxi"/>
        <stop lane="-E54_0" endPos="288.38" duration="1140.00"/>
        <ride from="-E54" to="E43" arrivalPos="100.93" lines="taxi"/>
    </person>

    <person id="t_84" depart="10627.00" arrival="12128.00">
        <ride from="-E52" to="E22" arrivalPos="205.59" lines="taxi"/>
        <stop lane="E22_0" endPos="205.59" duration="1140.00"/>
        <ride from="E22" to="-E52" arrivalPos="52.71" lines="taxi"/>
    </person>

    <person id="t_86" depart="10656.00" arrival="12130.00">
        <ride from="-E57" to="E22" arrivalPos="205.59" lines="taxi"/>
        <stop lane="E22_0" endPos="205.59" duration="1140.00"/>
        <ride from="E22" to="-E57" arrivalPos="110.94" lines="taxi"/>
    </person>

    <person id="t_88" depart="10738.00" arrival="12164.00">
        <ride from="-E4" to="E22" arrivalPos="205.59" lines="taxi"/>
        <stop lane="E22_0" endPos="205.59" duration="1140.00"/>
        <ride from="E22" to="-E4" arrivalPos="140.27" lines="taxi"/>
    </person>

    <person id="t_87" depart="10711.00" arrival="12221.00">
        <ride from="-E19" to="E22" arrivalPos="205.59" lines="taxi"/>
        <stop lane="E22_0" endPos="205.59" duration="1140.00"/>
        <ride from="E22" to="-E19" arrivalPos="4.99" lines="taxi"/>
    </person>

    <person id="t_85" depart="10645.00" arrival="12224.00">
        <ride from="-E15" to="E22" arrivalPos="205.59" lines="taxi"/>
        <stop lane="E22_0" endPos="205.59" duration="1140.00"/>
        <ride from="E22" to="-E15" arrivalPos="108.84" lines="taxi"/>
    </person>

    <person id="t_91" depart="10834.00" arrival="12273.00">
        <ride from="-E12" to="E41" arrivalPos="151.47" lines="taxi"/>
        <stop lane="E41_0" endPos="151.47" duration="1140.00"/>
        <ride from="E41" to="-E12" arrivalPos="123.09" lines="taxi"/>
    </person>

    <person id="t_90" depart="10801.00" arrival="12293.00">
        <ride from="-E53" to="E22" arrivalPos="205.59" lines="taxi"/>
        <stop lane="E22_0" endPos="205.59" duration="1140.00"/>
        <ride from="E22" to="-E53" arrivalPos="90.60" lines="taxi"/>
    </person>

    <person id="t_97" depart="10926.00" arrival="12300.00">
        <ride from="-E32" to="-E27" arrivalPos="245.13" lines="taxi"/>
        <stop lane="-E27_0" endPos="245.13" duration="1140.00"/>
        <ride from="-E27" to="-E32" arrivalPos="117.56" lines="taxi"/>
    </person>

    <person id="t_89" depart="10798.00" arrival="12330.00">
        <ride from="-E52" to="E22" arrivalPos="205.59" lines="taxi"/>
        <stop lane="E22_0" endPos="205.59" duration="1140.00"/>
        <ride from="E22" to="-E52" arrivalPos="52.71" lines="taxi"/>
    </person>

    <person id="t_95" depart="10888.00" arrival="12343.00">
        <ride from="E5" to="E41" arrivalPos="151.47" lines="taxi"/>
        <stop lane="E41_0" endPos="151.47" duration="1140.00"/>
        <ride from="E41" to="E5" arrivalPos="154.25" lines="taxi"/>
    </person>

    <person id="t_94" depart="10871.00" arrival="12347.00">
        <ride from="-E52" to="E22" arrivalPos="205.59" lines="taxi"/>
        <stop lane="E22_0" endPos="205.59" duration="1140.00"/>
        <ride from="E22" to="-E52" arrivalPos="52.71" lines="taxi"/>
    </person>

    <person id="t_92" depart="10834.00" arrival="12353.00">
        <ride from="-E13" to="E22" arrivalPos="205.59" lines="taxi"/>
        <stop lane="E22_0" endPos="205.59" duration="1140.00"/>
        <ride from="E22" to="-E13" arrivalPos="152.25" lines="taxi"/>
    </person>

    <person id="t_96" depart="10906.00" arrival="12402.00">
        <ride from="E16" to="E22" arrivalPos="205.59" lines="taxi"/>
        <stop lane="E22_0" endPos="205.59" duration="1140.00"/>
        <ride from="E22" to="E16" arrivalPos="262.42" lines="taxi"/>
    </person>

    <person id="t_93" depart="10865.00" arrival="12415.00">
        <ride from="-E56" to="E22" arrivalPos="205.59" lines="taxi"/>
        <stop lane="E22_0" endPos="205.59" duration="1140.00"/>
        <ride from="E22" to="-E56" arrivalPos="95.12" lines="taxi"/>
    </person>

    <person id="t_98" depart="11035.00" arrival="12449.00">
        <ride from="-E30" to="-E27" arrivalPos="245.13" lines="taxi"/>
        <stop lane="-E27_0" endPos="245.13" duration="1140.00"/>
        <ride from="-E27" to="-E30" arrivalPos="117.41" lines="taxi"/>
    </person>

    <person id="t_103" depart="11179.00" arrival="12688.00">
        <ride from="-E24" to="E22" arrivalPos="205.59" lines="taxi"/>
        <stop lane="E22_0" endPos="205.59" duration="1140.00"/>
        <ride from="E22" to="-E24" arrivalPos="152.60" lines="taxi"/>
    </person>

    <person id="t_104" depart="11244.00" arrival="12695.00">
        <ride from="E37" to="-E42" arrivalPos="90.12" lines="taxi"/>
        <stop lane="-E42_0" endPos="90.12" duration="1140.00"/>
        <ride from="-E42" to="E37" arrivalPos="204.13" lines="taxi"/>
    </person>

    <person id="t_99" depart="11103.00" arrival="12720.00">
        <ride from="E5" to="E22" arrivalPos="4.98" lines="taxi"/>
        <stop lane="E22_0" endPos="4.98" duration="1140.00"/>
        <ride from="E22" to="E5" arrivalPos="154.25" lines="taxi"/>
    </person>

    <person id="t_105" depart="11322.00" arrival="12740.00">
        <ride from="-E62" to="E41" arrivalPos="151.47" lines="taxi"/>
        <stop lane="E41_0" endPos="151.47" duration="1140.00"/>
        <ride from="E41" to="-E62" arrivalPos="88.54" lines="taxi"/>
    </person>

    <person id="t_101" depart="11151.00" arrival="12746.00">
        <ride from="E22" to="-E42" arrivalPos="90.12" lines="taxi"/>
        <stop lane="-E42_0" endPos="90.12" duration="1140.00"/>
        <ride from="-E42" to="E22" arrivalPos="205.59" lines="taxi"/>
    </person>

    <person id="t_100" depart="11107.00" arrival="12768.00">
        <ride from="E16" to="E22" arrivalPos="205.59" lines="taxi"/>